LAMMPS data file via write_data, version 28 Mar 2023, timestep = 1, units = metal

54 atoms
2 atom types

-0.00030917441205230683 7.425285454412053 xlo xhi
-0.00030917441205230683 7.425285454412053 ylo yhi
-0.00043723864643514175 10.500939388646437 zlo zhi
0 0 0 xy xz yz

Masses

1 55.845
2 58.6934

Atoms # atomic

1 2 0.017570786993230416 0.016064128879598415 0.028378823977949923 0 0 0
2 2 1.2663621279989261 1.2520626727631798 1.772045923743054 0 0 0
3 2 0.023064184178391203 0.016016108329071903 3.5265870571069975 0 0 0
4 2 0.015287106184192713 2.4977032099810703 0.019154385733607292 0 0 0
5 2 1.2511468186315284 3.735529486151934 1.7821164879005453 0 0 0
6 1 0.017276423657613862 2.4957723294432217 3.5256297918082327 0 0 0
7 2 0.029383589605438135 4.974096859400509 0.028721222548534854 0 0 0
8 2 1.2649872424230726 6.2122836342765595 1.7736510676596136 0 0 0
9 2 0.027278419825314135 4.978454783061025 3.535587327608081 0 0 0
10 2 2.4978684159569604 0.016656045265761223 0.018034540863904693 0 0 0
11 2 3.730214160200487 1.2502515616501222 1.78010657305642 0 0 0
12 2 2.4908834347941577 0.016274924511329912 3.541717457274211 0 0 0
13 2 2.5033541822788496 2.5012782719779034 0.03206271865043336 0 0 0
14 2 3.7403776227849406 3.734201825549965 1.7720713312733172 0 0 0
15 1 2.499905778608085 2.4949931568144796 3.5268558063433733 0 0 0
16 2 2.4895185733376315 4.969492812961558 0.027573452648225475 0 0 0
17 2 3.732237745138224 6.216314524768001 1.7913042574060898 0 0 0
18 2 2.49063940972565 4.968184682434336 3.531916018771146 0 0 0
19 2 4.972756649280588 0.03261480233629781 0.029823694172945316 0 0 0
20 1 6.20871068332888 1.262927112048027 1.776233426691978 0 0 0
21 2 4.9741800652439405 0.033043508610952045 3.540111590984488 0 0 0
22 2 4.968258586945586 2.4909701538410745 0.02399319957334005 0 0 0
23 2 6.209025322746352 3.737380052668858 1.7818478955405492 0 0 0
24 2 4.966586844935552 2.494239492723877 3.5294310242522515 0 0 0
25 1 4.970711114189243 4.974483798173608 0.03687426097453642 0 0 0
26 1 6.208690169245887 6.206661667231868 1.7879079900036106 0 0 0
27 2 4.969954135306147 4.960817045569642 3.536288619046511 0 0 0
28 2 1.2605204631495095 1.254948157759243 5.283012326825204 0 0 0
29 2 0.011751011944329984 0.011876041588752242 7.036343296486524 0 0 0
30 2 1.2641619840077436 1.260241630265836 8.78255563412808 0 0 0
31 2 1.2568182945048105 3.735883876495301 5.270388534686294 0 0 0
32 1 0.02871872663265833 2.5003483926577554 7.033674530451183 0 0 0
33 2 1.2510580900167731 3.734764286594749 8.784856789194656 0 0 0
34 2 1.2534390008484741 6.210670005725739 5.280528785656832 0 0 0
35 2 0.029467478888560637 4.9872407379469665 7.027369942356034 0 0 0
36 2 1.260774478153959 6.2069098151619215 8.785784995250943 0 0 0
37 2 3.7337593845456256 1.258747198064096 5.276902759968209 0 0 0
38 1 2.4874285968700205 0.023759123126129985 7.032498353240299 0 0 0
39 2 3.732276744528103 1.2516445830597989 8.786185555736715 0 0 0
40 2 3.7370915008853713 3.7280088623209635 5.276628837041369 0 0 0
41 2 2.513510361752408 2.5035853490019573 7.026601233575171 0 0 0
42 1 3.7294809056705254 3.732637879056535 8.77773345193991 0 0 0
43 1 3.7305100616961586 6.2040275176234 5.270748966642752 0 0 0
44 2 2.4856625500146414 4.964758330165316 7.025454990276125 0 0 0
45 2 3.7339699403366438 6.212400557441428 8.776338516368213 0 0 0
46 2 6.206555962730055 1.2581030912582396 5.279503939399924 0 0 0
47 1 4.972808925243594 0.01951221889572507 7.0338675753641615 0 0 0
48 2 6.204458701326572 1.2601943793145145 8.782675087876767 0 0 0
49 2 6.208425640128453 3.735867957817349 5.282928662448455 0 0 0
50 2 4.965549315942077 2.4863779047541215 7.0321447029534525 0 0 0
51 2 6.210092907752611 3.7385640521235337 8.774308416366784 0 0 0
52 2 6.210559727379997 6.206746173092509 5.2722024814734025 0 0 0
53 1 4.975090476900275 4.966625240752234 7.023484358577767 0 0 0
54 2 6.205033835495516 6.201992647402383 8.79319023856907 0 0 0

Velocities

1 0 0 0
2 0 0 0
3 0 0 0
4 0 0 0
5 0 0 0
6 0 0 0
7 0 0 0
8 0 0 0
9 0 0 0
10 0 0 0
11 0 0 0
12 0 0 0
13 0 0 0
14 0 0 0
15 0 0 0
16 0 0 0
17 0 0 0
18 0 0 0
19 0 0 0
20 0 0 0
21 0 0 0
22 0 0 0
23 0 0 0
24 0 0 0
25 0 0 0
26 0 0 0
27 0 0 0
28 0 0 0
29 0 0 0
30 0 0 0
31 0 0 0
32 0 0 0
33 0 0 0
34 0 0 0
35 0 0 0
36 0 0 0
37 0 0 0
38 0 0 0
39 0 0 0
40 0 0 0
41 0 0 0
42 0 0 0
43 0 0 0
44 0 0 0
45 0 0 0
46 0 0 0
47 0 0 0
48 0 0 0
49 0 0 0
50 0 0 0
51 0 0 0
52 0 0 0
53 0 0 0
54 0 0 0
