LAMMPS data file via write_data, version 28 Mar 2023, timestep = 1, units = metal

54 atoms
2 atom types

0.00023820480729154215 7.417688295192709 xlo xhi
0.00023820480729154215 7.417688295192709 ylo yhi
0.00033687246874136023 10.490195377531258 zlo zhi
0 0 0 xy xz yz

Masses

1 55.845
2 58.6934

Atoms # atomic

1 2 0.026009110084170013 0.02105717429049404 0.033462117176493784 0 0 0
2 2 1.252522888814805 1.2571153330006877 1.780406581456063 0 0 0
3 2 0.0274584417386095 0.0156770743481817 3.5323982914469294 0 0 0
4 1 0.01756517796153837 2.499038102680058 0.01677212248786235 0 0 0
5 1 1.2698555625638996 3.7254256937618457 1.7769278513231335 0 0 0
6 1 0.01407356592039558 2.486517294206037 3.5395952638393067 0 0 0
7 2 0.026817915613991453 4.9825258489473905 0.02925047702581012 0 0 0
8 2 1.2578559028647485 6.198767872892867 1.7826482445620022 0 0 0
9 2 0.025079430356244943 4.973128762195834 3.5317677774273313 0 0 0
10 1 2.504271078819348 0.02017615401558411 0.040902035200324476 0 0 0
11 2 3.7392998889767073 1.268496970090995 1.7901528879152524 0 0 0
12 2 2.491509552345709 0.03625708893218798 3.52468463607006 0 0 0
13 2 2.497547099319254 2.4966120210752654 0.02937880390826527 0 0 0
14 2 3.737336738562189 3.733886469940529 1.7808314197608828 0 0 0
15 2 2.497128860010776 2.499169386161396 3.535474008152118 0 0 0
16 2 2.493187994564361 4.956538938141254 0.04258438467750941 0 0 0
17 2 3.7264959410939027 6.198080077631194 1.788417863926394 0 0 0
18 1 2.506491905983965 4.978028442410558 3.5333760720452716 0 0 0
19 2 4.983209253128991 0.027160722312502866 0.04069102448347584 0 0 0
20 2 6.206493526642529 1.2719196056444027 1.7801288077351156 0 0 0
21 2 4.97289112365146 0.023984632529278162 3.532217331185887 0 0 0
22 2 4.956325436216978 2.4975831952697694 0.03131573122486072 0 0 0
23 1 6.201869791145658 3.7354955350398495 1.7735752156332183 0 0 0
24 2 4.958734488856119 2.5040023984250976 3.531569922280773 0 0 0
25 2 4.9719194155977435 4.969491408691194 0.03473747201240782 0 0 0
26 1 6.200314424983461 6.217078115625997 1.782710269535374 0 0 0
27 2 4.979608966298478 4.9665931752926795 3.5250861443993373 0 0 0
28 1 1.2703647646601348 1.245743460273085 5.283125240657492 0 0 0
29 2 0.024466582845030234 0.025541227572732927 7.028266880416058 0 0 0
30 2 1.2632542149883021 1.2597177652957443 8.776987498017599 0 0 0
31 1 1.2642475791680887 3.732797248635363 5.288198315228073 0 0 0
32 2 0.028759460935370594 2.4893755225074736 7.029817532443443 0 0 0
33 2 1.2602310570139854 3.741609803589056 8.777048345101434 0 0 0
34 2 1.2595382987908712 6.196507109073829 5.284126243346442 0 0 0
35 1 0.02401669667128256 4.971439791160555 7.03339525613537 0 0 0
36 2 1.2610251548564835 6.198442578148729 8.775461035996063 0 0 0
37 2 3.7431610656185907 1.266811708903822 5.274484679709281 0 0 0
38 2 2.492642321886194 0.025868879014441293 7.035426892067609 0 0 0
39 2 3.738099147552018 1.2666010980822546 8.77645644159192 0 0 0
40 2 3.731463741726751 3.7316009239748698 5.2850664539563015 0 0 0
41 2 2.49581247440188 2.4988286516128 7.031339473256452 0 0 0
42 1 3.731825927327227 3.733659648650374 8.777036720540117 0 0 0
43 2 3.72998211550884 6.203254587838105 5.277692130030038 0 0 0
44 2 2.499264730814172 4.965722006240033 7.025585527376393 0 0 0
45 1 3.7366738793029004 6.208847129004798 8.77704185257172 0 0 0
46 2 6.202431993684393 1.2636525665270286 5.284934034303476 0 0 0
47 2 4.976186544233475 0.0216452949190539 7.02191319195902 0 0 0
48 2 6.199381626751612 1.2626236543398963 8.773380561670242 0 0 0
49 1 6.190677670935603 3.741018207744585 5.287943999089228 0 0 0
50 2 4.9676378218071715 2.5004511150672846 7.030981813630996 0 0 0
51 2 6.205315295940984 3.7350296469721034 8.771297700720401 0 0 0
52 2 6.21239124618318 6.209861227415376 5.2768298275239 0 0 0
53 2 4.9678925727756535 4.971730208926037 7.033951642521792 0 0 0
54 2 6.213057663450644 6.203486428555306 8.776663981725642 0 0 0

Velocities

1 0 0 0
2 0 0 0
3 0 0 0
4 0 0 0
5 0 0 0
6 0 0 0
7 0 0 0
8 0 0 0
9 0 0 0
10 0 0 0
11 0 0 0
12 0 0 0
13 0 0 0
14 0 0 0
15 0 0 0
16 0 0 0
17 0 0 0
18 0 0 0
19 0 0 0
20 0 0 0
21 0 0 0
22 0 0 0
23 0 0 0
24 0 0 0
25 0 0 0
26 0 0 0
27 0 0 0
28 0 0 0
29 0 0 0
30 0 0 0
31 0 0 0
32 0 0 0
33 0 0 0
34 0 0 0
35 0 0 0
36 0 0 0
37 0 0 0
38 0 0 0
39 0 0 0
40 0 0 0
41 0 0 0
42 0 0 0
43 0 0 0
44 0 0 0
45 0 0 0
46 0 0 0
47 0 0 0
48 0 0 0
49 0 0 0
50 0 0 0
51 0 0 0
52 0 0 0
53 0 0 0
54 0 0 0
