LAMMPS data file via write_data, version 28 Mar 2023, timestep = 1, units = metal

54 atoms
2 atom types

-0.00044617686977966415 7.414452566869779 xlo xhi
-0.00044617686977966415 7.414452566869779 ylo yhi
-0.0006309893805643618 10.485619379380564 zlo zhi
0 0 0 xy xz yz

Masses

1 55.845
2 58.6934

Atoms # atomic

1 2 0.0257112959851453 0.028554347256118152 0.02665857328266914 0 0 0
2 1 1.264507973256925 1.265293930771267 1.7853003527522668 0 0 0
3 2 0.02567191579983736 0.03184760554523045 3.534880383108524 0 0 0
4 2 0.027795658914288753 2.4971639455713084 0.031971770919232215 0 0 0
5 1 1.2680164833046979 3.7290241137569535 1.7864001838564734 0 0 0
6 2 0.027985424107200556 2.4951718723464484 3.530619687130741 0 0 0
7 1 0.0260943584380239 4.969384483040457 0.027973336467450424 0 0 0
8 2 1.259008125004015 6.211483768891461 1.7914915065779438 0 0 0
9 1 0.023738656543115993 4.968089177533041 3.537169302796738 0 0 0
10 2 2.497656354065973 0.023690668249574245 0.029042357544953178 0 0 0
11 2 3.7309533018122467 1.2647233505996636 1.788939426656569 0 0 0
12 2 2.4973343610890524 0.020730879068104443 3.537137983745523 0 0 0
13 2 2.4954191683417015 2.5018551410410437 0.033599650037910316 0 0 0
14 2 3.742495685049291 3.7219784546739234 1.78702214355187 0 0 0
15 2 2.495082765422385 2.5062995824773844 3.532989386761253 0 0 0
16 1 2.4948418734341122 4.971714567749222 0.03509306820824961 0 0 0
17 1 3.733110921077766 6.2034291865999 1.7896804725562752 0 0 0
18 2 2.506319457733719 4.966064979177934 3.532484082749256 0 0 0
19 2 4.969738429948448 0.023939655573564006 0.0355271647196 0 0 0
20 1 6.2020246764802875 1.2655512649736667 1.7784790766080252 0 0 0
21 2 4.970111782184259 0.020605981267459352 3.5306323323494553 0 0 0
22 2 4.969926825454762 2.49946975426032 0.029356938967726544 0 0 0
23 2 6.201634629619328 3.7333484887915156 1.7891600535290961 0 0 0
24 2 4.9700809605464995 2.504113572250679 3.5378719297570536 0 0 0
25 1 4.972192605392891 4.966450888549319 0.03581300071150841 0 0 0
26 1 6.199934827032819 6.2069737689641045 1.7878973204383917 0 0 0
27 2 4.958949024365355 4.968405145467685 3.535403513126477 0 0 0
28 2 1.2688561745486073 1.2641484368220388 5.271629533378599 0 0 0
29 2 0.02068730239445726 0.030455055863146226 7.035374452346298 0 0 0
30 2 1.2651791991182921 1.2610260028166251 8.787414638806794 0 0 0
31 2 1.2552874165122256 3.727694095743816 5.264981021236411 0 0 0
32 2 0.029930341388957598 2.497084332640961 7.034300916743445 0 0 0
33 2 1.2513592148361454 3.732837569787757 8.785861938235396 0 0 0
34 1 1.2662122119448849 6.201356987173539 5.27779609916442 0 0 0
35 2 0.029472846552811908 4.965587040833884 7.027160273525279 0 0 0
36 2 1.2602668681605398 6.206712080886129 8.766119578189311 0 0 0
37 2 3.7253183203016764 1.2576036656125085 5.272870899374284 0 0 0
38 1 2.4962804947157324 0.02047573164700786 7.030991561342537 0 0 0
39 2 3.7317371301166133 1.2544671015361168 8.778169619019852 0 0 0
40 2 3.7365799776574855 3.731965832648186 5.276333248817291 0 0 0
41 1 2.491728153829708 2.4995008223422452 7.0244531369055405 0 0 0
42 1 3.7324717379917134 3.7345685367719996 8.776922787641515 0 0 0
43 2 3.740669471312639 6.210996627902942 5.264790048973025 0 0 0
44 2 2.501862700596196 4.965715972956823 7.03193303396578 0 0 0
45 2 3.734245666733658 6.215683253392852 8.785923556509928 0 0 0
46 1 6.20422529743332 1.2633609981255465 5.282046851876288 0 0 0
47 2 4.972902119580716 0.018755676183351527 7.030749078475713 0 0 0
48 2 6.203667287876463 1.263364871221861 8.777778188222838 0 0 0
49 2 6.208716484932776 3.7430810731838053 5.275323356795295 0 0 0
50 1 4.976745293848366 2.502002546781538 7.0284600491763705 0 0 0
51 2 6.21262859270067 3.7353675866111273 8.775537847572938 0 0 0
52 2 6.202175615757948 6.1974134394215765 5.273198195566399 0 0 0
53 2 4.961810751230854 4.974974472494787 7.032635307551642 0 0 0
54 2 6.206059243115104 6.201854847296226 8.784767119756562 0 0 0

Velocities

1 0 0 0
2 0 0 0
3 0 0 0
4 0 0 0
5 0 0 0
6 0 0 0
7 0 0 0
8 0 0 0
9 0 0 0
10 0 0 0
11 0 0 0
12 0 0 0
13 0 0 0
14 0 0 0
15 0 0 0
16 0 0 0
17 0 0 0
18 0 0 0
19 0 0 0
20 0 0 0
21 0 0 0
22 0 0 0
23 0 0 0
24 0 0 0
25 0 0 0
26 0 0 0
27 0 0 0
28 0 0 0
29 0 0 0
30 0 0 0
31 0 0 0
32 0 0 0
33 0 0 0
34 0 0 0
35 0 0 0
36 0 0 0
37 0 0 0
38 0 0 0
39 0 0 0
40 0 0 0
41 0 0 0
42 0 0 0
43 0 0 0
44 0 0 0
45 0 0 0
46 0 0 0
47 0 0 0
48 0 0 0
49 0 0 0
50 0 0 0
51 0 0 0
52 0 0 0
53 0 0 0
54 0 0 0
