LAMMPS data file via write_data, version 28 Mar 2023, timestep = 1, units = metal

54 atoms
2 atom types

-0.000676505879756805 7.459686975879757 xlo xhi
-0.000676505879756805 7.459686975879757 ylo yhi
-0.0009567237903080988 10.549590493790308 zlo zhi
0 0 0 xy xz yz

Masses

1 55.845
2 58.6934

Atoms # atomic

1 2 0.003877601472298165 0.003342764990552594 0.004727383642953336 0 0 0
2 2 1.2448909652452056 1.248582441635804 1.7660892302622615 0 0 0
3 2 0.0034642972817891635 0.0033427650268906994 3.5210157964105844 0 0 0
4 2 0.002750673627810287 2.4907227332532003 0.0047273836397445975 0 0 0
5 2 1.2471187773701151 3.7335245058946334 1.7627782085466273 0 0 0
6 2 0.004075839750460268 2.48939756713055 3.520868221821604 0 0 0
7 2 0.0027506736277831513 4.9763262784270825 0.004727383639744594 0 0 0
8 2 1.2448909652458031 6.21846664451281 1.7660892302285127 0 0 0
9 2 0.004075839763539303 4.977651519027018 3.5208682218034455 0 0 0
10 2 2.490130641890308 0.003342764990701776 0.004727383643080205 0 0 0
11 2 3.7353702441277137 1.248582441635207 1.7660892302285127 0 0 0
12 2 2.4901306418416995 0.003342765039311135 3.5231571552615066 0 0 0
13 2 2.490130641890458 2.4895958054087117 0.004727383642953336 0 0 0
14 2 3.7331424320037176 3.7335245058946334 1.7627782085173112 0 0 0
15 2 2.49013064185412 2.490009109599221 3.5210157964105844 0 0 0
16 2 2.490130641890458 4.977453206271521 0.004727383642953335 0 0 0
17 2 3.735370244127117 6.2184666445134065 1.7660892301947633 0 0 0
18 2 2.49013064185412 4.977039976564045 3.521015796412848 0 0 0
19 2 4.976383682369002 0.003342764990552594 0.0047273836429533355 0 0 0
20 2 6.220312382745891 1.246354629510895 1.7627782085466273 0 0 0
21 2 4.976796912076478 0.0033427650268906994 3.521015796412848 0 0 0
22 2 4.977510610213443 2.490722733253227 0.004727383639744596 0 0 0
23 2 6.220312382744806 3.733524505895717 1.769426979207317 0 0 0
24 2 4.976185369613505 2.48939756711747 3.5208682218034455 0 0 0
25 2 4.9775106102134705 4.976326278427055 0.004727383639744593 0 0 0
26 2 6.220312382745891 6.220694456636808 1.7627782085173112 0 0 0
27 2 4.976185369600427 4.977651519040097 3.5208682217852885 0 0 0
28 2 1.2428211710180261 1.2506522358629844 5.280000992397173 0 0 0
29 2 0.0034642972782360326 0.0033427650268906994 7.038986293605805 0 0 0
30 2 1.2448909652694475 1.248582441611562 8.79391285971949 0 0 0
31 2 1.2524972201148827 3.733524505918187 5.280000992431946 0 0 0
32 2 0.004075839753674318 2.489397567127335 7.039133868196247 0 0 0
33 2 1.2471187773661307 3.7335245058946334 8.797223881466131 0 0 0
34 2 1.2428211710153094 6.216396850299304 5.280000992397173 0 0 0
35 2 0.0040758397667533565 4.977651519030232 7.039133868214406 0 0 0
36 2 1.2448909652700453 6.218466644537052 8.79391285975324 0 0 0
37 2 3.73744003834122 1.250652235865701 5.280000992397173 0 0 0
38 2 2.4901306418416995 0.003342765039311135 7.036844829487593 0 0 0
39 2 3.735370244103472 1.2485824416109648 8.79391285975324 0 0 0
40 2 3.7277640637276708 3.733524505918187 5.280000992431946 0 0 0
41 2 2.49013064185412 2.490009109602774 7.038986293605805 0 0 0
42 2 3.7331424320077016 3.7335245058946334 8.797223881495446 0 0 0
43 2 3.737440038343936 6.216396850296587 5.280000992397173 0 0 0
44 2 2.49013064185412 4.977039976560493 7.038986293603541 0 0 0
45 2 3.735370244102875 6.218466644537649 8.793912859786989 0 0 0
46 2 6.220312382722336 1.2409761867661275 5.280000992431946 0 0 0
47 2 4.9767969120800295 0.0033427650268906994 7.038986293603541 0 0 0
48 2 6.220312382745891 1.2463546295148793 8.797223881466131 0 0 0
49 1 6.220312382769701 3.733524505870822 5.280000992443219 0 0 0
50 2 4.976185369610291 2.4893975671142567 7.039133868214406 0 0 0
51 2 6.220312382744806 3.733524505895717 8.790575110802708 0 0 0
52 2 6.220312382722336 6.226072824912853 5.280000992431946 0 0 0
53 2 4.9761853695972125 4.97765151904331 7.039133868232564 0 0 0
54 2 6.220312382745891 6.220694456632824 8.797223881495446 0 0 0

Velocities

1 0 0 0
2 0 0 0
3 0 0 0
4 0 0 0
5 0 0 0
6 0 0 0
7 0 0 0
8 0 0 0
9 0 0 0
10 0 0 0
11 0 0 0
12 0 0 0
13 0 0 0
14 0 0 0
15 0 0 0
16 0 0 0
17 0 0 0
18 0 0 0
19 0 0 0
20 0 0 0
21 0 0 0
22 0 0 0
23 0 0 0
24 0 0 0
25 0 0 0
26 0 0 0
27 0 0 0
28 0 0 0
29 0 0 0
30 0 0 0
31 0 0 0
32 0 0 0
33 0 0 0
34 0 0 0
35 0 0 0
36 0 0 0
37 0 0 0
38 0 0 0
39 0 0 0
40 0 0 0
41 0 0 0
42 0 0 0
43 0 0 0
44 0 0 0
45 0 0 0
46 0 0 0
47 0 0 0
48 0 0 0
49 0 0 0
50 0 0 0
51 0 0 0
52 0 0 0
53 0 0 0
54 0 0 0
