LAMMPS data file via write_data, version 28 Mar 2023, timestep = 1, units = metal

54 atoms
2 atom types

0.0004820915627689756 7.4035182884372315 xlo xhi
0.0004820915627689756 7.4035182884372315 ylo yhi
0.0006817804261644141 10.470155969573835 zlo zhi
0 0 0 xy xz yz

Masses

1 55.845
2 58.6934

Atoms # atomic

1 1 0.026067049490436228 0.035786605037497095 0.04681859569028108 0 0 0
2 1 1.2658644228889904 1.2685284831141994 1.7874628931991428 0 0 0
3 2 0.02434648454445044 0.0272824661590901 3.5367568081398995 0 0 0
4 2 0.034109203852932764 2.4975038797455693 0.05012873562005631 0 0 0
5 1 1.268599780405602 3.7351771834050878 1.7894867776034606 0 0 0
6 1 0.03626771689285577 2.5060347165124126 3.53664253979413 0 0 0
7 2 0.03152017798262102 4.9668143534036195 0.04062739780700857 0 0 0
8 1 1.2636659586789427 6.1968346035406725 1.8007353795447503 0 0 0
9 2 0.03315198280922094 4.977533550776604 3.5427308100704025 0 0 0
10 1 2.508281769226846 0.03298591496563058 0.04138666885455342 0 0 0
11 2 3.731190095876501 1.2632887464736624 1.783072970780647 0 0 0
12 1 2.4943459661289547 0.02732522486835157 3.5352139690500572 0 0 0
13 2 2.5041083403861504 2.500153428675163 0.04100564919656353 0 0 0
14 2 3.7311295929551522 3.734115072777199 1.7894074280210857 0 0 0
15 2 2.5066600943441233 2.5029446621540656 3.53636641612875 0 0 0
16 2 2.504190515073044 4.961635572146595 0.04211550516607536 0 0 0
17 2 3.7311263980347236 6.203126609612736 1.7988570451351666 0 0 0
18 2 2.500390128047521 4.95991452706169 3.54114251967808 0 0 0
19 2 4.9660244733701315 0.03463550451007055 0.04173772478429222 0 0 0
20 2 6.2014373526993705 1.2658106973598786 1.7941507175558062 0 0 0
21 1 4.967484715897569 0.027858332259627885 3.5231258851394145 0 0 0
22 2 4.960841783776504 2.49144635268258 0.04065778757652872 0 0 0
23 2 6.204172942920703 3.734208426315327 1.791885600141632 0 0 0
24 1 4.968288967127667 2.50381944581718 3.5246466736228976 0 0 0
25 2 4.963321250634353 4.97296496234256 0.05129023636955067 0 0 0
26 2 6.201533553161238 6.200575351054097 1.7898015400105638 0 0 0
27 1 4.970123727640529 4.967361349487117 3.532858329945134 0 0 0
28 1 1.2559415487704642 1.2652735526293384 5.285032076648018 0 0 0
29 2 0.030970257791443825 0.034747178592060786 7.027885061165787 0 0 0
30 2 1.264276992669552 1.2690348845379142 8.767058299247894 0 0 0
31 2 1.2601077030371064 3.7379972409420255 5.2786844251095735 0 0 0
32 2 0.0362202246308779 2.494392003424074 7.016196344582148 0 0 0
33 2 1.261574790911807 3.7309631059565778 8.768240583055672 0 0 0
34 2 1.262620409694416 6.198147510305149 5.2808912960902505 0 0 0
35 2 0.027367611075138815 4.969891595209152 7.021875573711842 0 0 0
36 1 1.2669143571303008 6.199042761455089 8.76312997314252 0 0 0
37 1 3.7313869275479887 1.268015605823196 5.276157362299698 0 0 0
38 1 2.493370544881143 0.028380017703770598 7.0286777791705495 0 0 0
39 2 3.7315866839696064 1.2602140915078754 8.77591440163602 0 0 0
40 1 3.7314011993852634 3.741806855153037 5.276191366388346 0 0 0
41 1 2.4912371660793347 2.5032894349646067 7.029416431648736 0 0 0
42 2 3.7316709571842783 3.737223081548363 8.769637007155202 0 0 0
43 1 3.7335540335586765 6.190726094465758 5.281582000604473 0 0 0
44 1 2.4913010930947737 4.96736912070953 7.025625832190116 0 0 0
45 2 3.7316273138447213 6.203115394967754 8.768585771723645 0 0 0
46 1 6.213265838553542 1.2630949428075224 5.2822277700357185 0 0 0
47 1 4.976750414042821 0.028761711819116135 7.033026192837436 0 0 0
48 2 6.2047256979427905 1.2690533013603669 8.767599513200425 0 0 0
49 2 6.2108845362782334 3.738028674255701 5.277278645316106 0 0 0
50 1 4.980043434992266 2.5040405918262376 7.033765773810841 0 0 0
51 2 6.207288280920838 3.73103056925824 8.770784193389614 0 0 0
52 2 6.208316668239484 6.1981338432732604 5.280458152658135 0 0 0
53 2 4.966389344137952 4.969935602731458 7.0235304366653075 0 0 0
54 1 6.197362493711771 6.1990263274989825 8.76748770302755 0 0 0

Velocities

1 0 0 0
2 0 0 0
3 0 0 0
4 0 0 0
5 0 0 0
6 0 0 0
7 0 0 0
8 0 0 0
9 0 0 0
10 0 0 0
11 0 0 0
12 0 0 0
13 0 0 0
14 0 0 0
15 0 0 0
16 0 0 0
17 0 0 0
18 0 0 0
19 0 0 0
20 0 0 0
21 0 0 0
22 0 0 0
23 0 0 0
24 0 0 0
25 0 0 0
26 0 0 0
27 0 0 0
28 0 0 0
29 0 0 0
30 0 0 0
31 0 0 0
32 0 0 0
33 0 0 0
34 0 0 0
35 0 0 0
36 0 0 0
37 0 0 0
38 0 0 0
39 0 0 0
40 0 0 0
41 0 0 0
42 0 0 0
43 0 0 0
44 0 0 0
45 0 0 0
46 0 0 0
47 0 0 0
48 0 0 0
49 0 0 0
50 0 0 0
51 0 0 0
52 0 0 0
53 0 0 0
54 0 0 0
