LAMMPS data file via write_data, version 28 Mar 2023, timestep = 1, units = metal -198.109993098667 [367.496224595016, 72.6636414849054, 147.416291553488, 212.154952174469, 106.202508563034]

54 atoms
1 atom types

0 7.467047609329942 xlo xhi
0 7.467047609329942 ylo yhi
0 10.56 zlo zhi
0 0 0 xy xz yz

Masses

1 51.9961

Atoms # atomic

1 1 7.419622614130073e-17 4.482688662703586e-17 0 0 0 0
2 1 1.2445079348883237 1.2445079348883237 1.76 0 0 0
3 1 6.183018845108394e-18 0 3.52 0 0 0
7 1 0 2.4890158697766473 4.3281131915758764e-17 0 0 0
8 1 1.2445079348883237 3.733523804664971 1.76 0 0 0
9 1 0 2.4890158697766473 3.52 0 0 0
13 1 1.2366037690216788e-17 4.978031739553295 4.3281131915758764e-17 0 0 0
14 1 1.2445079348883237 6.222539674441618 1.76 0 0 0
15 1 1.2366037690216788e-17 4.978031739553295 3.52 0 0 0
19 1 2.4890158697766473 0 3.246084893681907e-17 0 0 0
20 1 3.733523804664971 1.2445079348883237 1.76 0 0 0
21 1 2.4890158697766473 1.1816570195192507e-17 3.52 0 0 0
25 1 2.4890158697766473 2.4890158697766473 2.7050707447349222e-17 0 0 0
26 1 3.733523804664971 3.733523804664971 1.76 0 0 0
27 1 2.4890158697766473 2.4890158697766473 3.52 0 0 0
31 1 2.4890158697766473 4.978031739553295 5.719292431725265e-17 0 0 0
32 1 3.733523804664971 6.222539674441618 1.76 0 0 0
33 1 2.4890158697766473 4.978031739553295 3.52 0 0 0
37 1 4.978031739553295 1.0820282978939691e-17 4.1735377204481656e-17 0 0 0
38 1 6.222539674441618 1.2445079348883237 1.76 0 0 0
39 1 4.978031739553295 1.6230424468409536e-17 3.52 0 0 0
43 1 4.978031739553295 2.4890158697766473 5.100990547214426e-17 0 0 0
44 1 6.222539674441618 3.733523804664971 1.76 0 0 0
45 1 4.978031739553295 2.4890158697766473 3.52 0 0 0
49 1 4.978031739553295 4.978031739553295 6.955896200746944e-17 0 0 0
50 1 6.222539674441618 6.222539674441618 1.76 0 0 0
51 1 4.978031739553295 4.978031739553295 3.52 0 0 0
4 1 1.2445079348883237 1.2445079348883237 5.28 0 0 0
5 1 0 0 7.04 0 0 0
6 1 1.2445079348883237 1.2445079348883237 8.8 0 0 0
10 1 1.2445079348883237 3.733523804664971 5.28 0 0 0
11 1 0 2.4890158697766473 7.04 0 0 0
12 1 1.2445079348883237 3.733523804664971 8.8 0 0 0
16 1 1.2445079348883237 6.222539674441618 5.28 0 0 0
17 1 0 4.978031739553295 7.04 0 0 0
18 1 1.2445079348883237 6.222539674441618 8.8 0 0 0
22 1 3.733523804664971 1.2445079348883237 5.28 0 0 0
23 1 2.4890158697766473 0 7.04 0 0 0
24 1 3.733523804664971 1.2445079348883237 8.8 0 0 0
28 1 3.733523804664971 3.733523804664971 5.28 0 0 0
29 1 2.4890158697766473 2.4890158697766473 7.04 0 0 0
30 1 3.733523804664971 3.733523804664971 8.8 0 0 0
34 1 3.733523804664971 6.222539674441618 5.28 0 0 0
35 1 2.4890158697766473 4.978031739553295 7.04 0 0 0
36 1 3.733523804664971 6.222539674441618 8.8 0 0 0
40 1 6.222539674441618 1.2445079348883237 5.28 0 0 0
41 1 4.978031739553295 1.6230424468409536e-17 7.04 0 0 0
42 1 6.222539674441618 1.2445079348883237 8.8 0 0 0
46 1 6.222539674441618 3.733523804664971 5.28 0 0 0
47 1 4.978031739553295 2.4890158697766473 7.04 0 0 0
48 1 6.222539674441618 3.733523804664971 8.8 0 0 0
52 1 6.222539674441618 6.222539674441618 5.28 0 0 0
53 1 4.978031739553295 4.978031739553295 7.04 0 0 0
54 1 6.222539674441618 6.222539674441618 8.8 0 0 0

Velocities

1 0 0 0
2 0 0 0
3 0 0 0
7 0 0 0
8 0 0 0
9 0 0 0
13 0 0 0
14 0 0 0
15 0 0 0
19 0 0 0
20 0 0 0
21 0 0 0
25 0 0 0
26 0 0 0
27 0 0 0
31 0 0 0
32 0 0 0
33 0 0 0
37 0 0 0
38 0 0 0
39 0 0 0
43 0 0 0
44 0 0 0
45 0 0 0
49 0 0 0
50 0 0 0
51 0 0 0
4 0 0 0
5 0 0 0
6 0 0 0
10 0 0 0
11 0 0 0
12 0 0 0
16 0 0 0
17 0 0 0
18 0 0 0
22 0 0 0
23 0 0 0
24 0 0 0
28 0 0 0
29 0 0 0
30 0 0 0
34 0 0 0
35 0 0 0
36 0 0 0
40 0 0 0
41 0 0 0
42 0 0 0
46 0 0 0
47 0 0 0
48 0 0 0
52 0 0 0
53 0 0 0
54 0 0 0
