LAMMPS data file via write_data, version 28 Mar 2023, timestep = 1, units = metal -222.232607120366 [228.863300296971, 12.527355618704, 108.167972333021, 113.908098702213, 78.8992108119458]

54 atoms
1 atom types

0 7.467047609329942 xlo xhi
0 7.467047609329942 ylo yhi
0 10.56 zlo zhi
0 0 0 xy xz yz

Masses

1 55.845

Atoms # atomic

1 1 0 0 0 0 0 0
2 1 1.2445079348883237 1.2445079348883237 1.76 0 0 0
3 1 0 0 3.52 0 0 0
7 1 0 2.4890158697766473 0 0 0 0
8 1 1.2445079348883237 3.733523804664971 1.76 0 0 0
9 1 0 2.4890158697766473 3.52 0 0 0
13 1 0 4.978031739553295 0 0 0 0
14 1 1.2445079348883237 6.222539674441618 1.76 0 0 0
15 1 0 4.978031739553295 3.52 0 0 0
19 1 2.4890158697766473 0 0 0 0 0
20 1 3.733523804664971 1.2445079348883237 1.76 0 0 0
21 1 2.4890158697766473 0 3.52 0 0 0
25 1 2.4890158697766473 2.4890158697766473 0 0 0 0
26 1 3.733523804664971 3.733523804664971 1.76 0 0 0
27 1 2.4890158697766473 2.4890158697766473 3.52 0 0 0
31 1 2.4890158697766473 4.978031739553295 0 0 0 0
32 1 3.733523804664971 6.222539674441618 1.76 0 0 0
33 1 2.4890158697766473 4.978031739553295 3.52 0 0 0
37 1 4.978031739553295 0 0 0 0 0
38 1 6.222539674441618 1.2445079348883237 1.76 0 0 0
39 1 4.978031739553295 0 3.52 0 0 0
43 1 4.978031739553295 2.4890158697766473 0 0 0 0
44 1 6.222539674441618 3.733523804664971 1.76 0 0 0
45 1 4.978031739553295 2.4890158697766473 3.52 0 0 0
49 1 4.978031739553295 4.978031739553295 0 0 0 0
50 1 6.222539674441618 6.222539674441618 1.76 0 0 0
51 1 4.978031739553295 4.978031739553295 3.52 0 0 0
4 1 1.2445079348883237 1.2445079348883237 5.28 0 0 0
5 1 0 0 7.04 0 0 0
6 1 1.2445079348883237 1.2445079348883237 8.8 0 0 0
10 1 1.2445079348883237 3.733523804664971 5.28 0 0 0
11 1 0 2.4890158697766473 7.04 0 0 0
12 1 1.2445079348883237 3.733523804664971 8.8 0 0 0
16 1 1.2445079348883237 6.222539674441618 5.28 0 0 0
17 1 0 4.978031739553295 7.04 0 0 0
18 1 1.2445079348883237 6.222539674441618 8.8 0 0 0
22 1 3.733523804664971 1.2445079348883237 5.28 0 0 0
23 1 2.4890158697766473 0 7.04 0 0 0
24 1 3.733523804664971 1.2445079348883237 8.8 0 0 0
28 1 3.733523804664971 3.733523804664971 5.28 0 0 0
29 1 2.4890158697766473 2.4890158697766473 7.04 0 0 0
30 1 3.733523804664971 3.733523804664971 8.8 0 0 0
34 1 3.733523804664971 6.222539674441618 5.28 0 0 0
35 1 2.4890158697766473 4.978031739553295 7.04 0 0 0
36 1 3.733523804664971 6.222539674441618 8.8 0 0 0
40 1 6.222539674441618 1.2445079348883237 5.28 0 0 0
41 1 4.978031739553295 0 7.04 0 0 0
42 1 6.222539674441618 1.2445079348883237 8.8 0 0 0
46 1 6.222539674441618 3.733523804664971 5.28 0 0 0
47 1 4.978031739553295 2.4890158697766473 7.04 0 0 0
48 1 6.222539674441618 3.733523804664971 8.8 0 0 0
52 1 6.222539674441618 6.222539674441618 5.28 0 0 0
53 1 4.978031739553295 4.978031739553295 7.04 0 0 0
54 1 6.222539674441618 6.222539674441618 8.8 0 0 0

Velocities

1 0 0 0
2 0 0 0
3 0 0 0
7 0 0 0
8 0 0 0
9 0 0 0
13 0 0 0
14 0 0 0
15 0 0 0
19 0 0 0
20 0 0 0
21 0 0 0
25 0 0 0
26 0 0 0
27 0 0 0
31 0 0 0
32 0 0 0
33 0 0 0
37 0 0 0
38 0 0 0
39 0 0 0
43 0 0 0
44 0 0 0
45 0 0 0
49 0 0 0
50 0 0 0
51 0 0 0
4 0 0 0
5 0 0 0
6 0 0 0
10 0 0 0
11 0 0 0
12 0 0 0
16 0 0 0
17 0 0 0
18 0 0 0
22 0 0 0
23 0 0 0
24 0 0 0
28 0 0 0
29 0 0 0
30 0 0 0
34 0 0 0
35 0 0 0
36 0 0 0
40 0 0 0
41 0 0 0
42 0 0 0
46 0 0 0
47 0 0 0
48 0 0 0
52 0 0 0
53 0 0 0
54 0 0 0
