LAMMPS (28 Mar 2023 - Development)
OMP_NUM_THREADS environment is not set. Defaulting to 1 thread. (src/comm.cpp:98)
  using 1 OpenMP thread(s) per MPI task
include init.mod
# metal units, elastic constants in GPa
units           metal
variable cfac equal 1.0e-4
variable cunits string GPa
variable up equal 1.0e-6
variable atomjiggle equal 1.0e-5


# Define minimization parameters
variable etol equal 0.0
variable ftol equal 1.0e-10
variable maxiter equal 100
variable maxeval equal 1000
variable dmax equal 1.0e-2

boundary        p p p
read_data	Cr_relaxed.lmp
Reading data file ...
  triclinic box = (0 0 0) to (7.4670476 7.4670476 10.56) with tilt (0 0 0)
  1 by 1 by 1 MPI processor grid
  reading atoms ...
  54 atoms
  reading velocities ...
  54 velocities
  read_data CPU = 0.000 seconds

# Need to set mass to something, just to satisfy LAMMPS
mass 1 1.0e-20
include potential.mod
# Choose potential
pair_style	eam/alloy
pair_coeff	* * NiFeCr.eam.alloy Cr

# Setup neighbor style
neighbor 1.0 nsq
neigh_modify once no every 1 delay 0 check yes

# Setup minimization style
min_style            cg
min_modify           dmax ${dmax} line quadratic
min_modify           dmax 0.01 line quadratic

# Setup output
thermo          1
thermo_style custom step temp pe press pxx pyy pzz pxy pxz pyz lx ly lz vol
thermo_modify norm no

# Compute initial state
fix 3 all box/relax  aniso 0.0
minimize ${etol} ${ftol} ${maxiter} ${maxeval}
minimize 0 ${ftol} ${maxiter} ${maxeval}
minimize 0 1e-10 ${maxiter} ${maxeval}
minimize 0 1e-10 100 ${maxeval}
minimize 0 1e-10 100 1000
Neighbor list info ...
  update: every = 1 steps, delay = 0 steps, check = yes
  max neighbors/atom: 2000, page size: 100000
  master list distance cutoff = 6.6
  ghost atom cutoff = 6.6
  1 neighbor lists, perpetual/occasional/extra = 1 0 0
  (1) pair eam/alloy, perpetual
      attributes: half, newton on
      pair build: half/nsq/newton
      stencil: none
      bin: none
WARNING: Energy due to 3 extra global DOFs will be included in minimizer energies
 (src/min.cpp:225)
Per MPI rank memory allocation (min/avg/max) = 4.453 | 4.453 | 4.453 Mbytes
   Step          Temp          PotEng         Press           Pxx            Pyy            Pzz            Pxy            Pxz            Pyz             Lx             Ly             Lz           Volume    
         0   0             -198.10999      117606         117606         117606         117606        -4.8242494e-11  2.8926615e-11  2.1978185e-11  7.4670476      7.4670476      10.56          588.79181    
         1   0             -198.12292      116878.19      116878.19      116878.19      116878.19      6.0214245e-11  1.0562975e-10  8.1091034e-11  7.4677943      7.4677943      10.561056      588.96846    
         2   0             -198.13577      116151.87      116151.87      116151.87      116151.87      3.4325035e-11  2.5625837e-11  1.7926764e-11  7.468541       7.468541       10.562112      589.14515    
         3   0             -198.14854      115427.04      115427.04      115427.04      115427.04      8.0250089e-11  4.5275086e-13  4.0747577e-12  7.4692877      7.4692877      10.563168      589.32188    
         4   0             -198.16124      114703.69      114703.69      114703.69      114703.69     -2.8156431e-11  1.9726475e-11  2.9306828e-11  7.4700344      7.4700344      10.564224      589.49864    
         5   0             -198.17385      113981.84      113981.84      113981.84      113981.84      7.2868036e-11  1.9004135e-11 -3.6424591e-11  7.4707811      7.4707811      10.56528       589.67544    
         6   0             -198.18639      113261.47      113261.47      113261.47      113261.47     -4.4838574e-11 -1.3645703e-11 -6.1066406e-12  7.4715278      7.4715278      10.566336      589.85227    
         7   0             -198.19886      112542.6       112542.6       112542.6       112542.6       6.3177247e-11  1.10791e-11    1.7033174e-11  7.4722745      7.4722745      10.567392      590.02914    
         8   0             -198.21124      111825.21      111825.21      111825.21      111825.21      9.5104776e-11 -6.2687402e-11 -5.2139041e-11  7.4730212      7.4730212      10.568448      590.20604    
         9   0             -198.22355      111109.32      111109.32      111109.32      111109.32      6.7263309e-11 -2.534614e-11  -3.8602963e-11  7.473768       7.473768       10.569504      590.38298    
        10   0             -198.23579      110394.91      110394.91      110394.91      110394.91     -4.5763747e-11  1.2499847e-11 -4.8192181e-12  7.4745147      7.4745147      10.57056       590.55995    
        11   0             -198.24794      109682         109682         109682         109682        -1.4598232e-10 -2.2319844e-11 -1.5695404e-11  7.4752614      7.4752614      10.571616      590.73696    
        12   0             -198.26003      108970.59      108970.59      108970.59      108970.59     -7.9507082e-11  2.148535e-11   1.0197075e-11  7.4760081      7.4760081      10.572672      590.914      
        13   0             -198.27203      108260.66      108260.66      108260.66      108260.66      4.9841611e-11  1.8808155e-12 -9.2536123e-12  7.4767548      7.4767548      10.573728      591.09108    
        14   0             -198.28396      107552.23      107552.23      107552.23      107552.23     -1.3425e-11     7.5210084e-13  5.9415967e-12  7.4775015      7.4775015      10.574784      591.2682     
        15   0             -198.29581      106845.29      106845.29      106845.29      106845.29      9.3345352e-11 -2.0451016e-11 -1.4586386e-11  7.4782482      7.4782482      10.57584       591.44535    
        16   0             -198.30759      106139.85      106139.85      106139.85      106139.85      6.5393584e-11 -2.9201618e-11 -1.1988824e-11  7.4789949      7.4789949      10.576896      591.62253    
        17   0             -198.31929      105435.9       105435.9       105435.9       105435.9       1.4667822e-10 -4.2568243e-11 -1.5967788e-11  7.4797416      7.4797416      10.577952      591.79975    
        18   0             -198.33092      104733.45      104733.45      104733.45      104733.45     -3.3428414e-12  4.2179897e-11  3.8724376e-11  7.4804883      7.4804883      10.579008      591.97701    
        19   0             -198.34247      104032.5       104032.5       104032.5       104032.5      -9.706357e-12  -4.577195e-11  -3.630966e-11   7.481235       7.481235       10.580064      592.1543     
        20   0             -198.35394      103333.04      103333.04      103333.04      103333.04     -9.1403882e-12 -3.7725216e-11 -3.0142636e-11  7.4819817      7.4819817      10.58112       592.33163    
        21   0             -198.36534      102635.07      102635.07      102635.07      102635.07      1.3640807e-10  4.747076e-11   4.371813e-11   7.4827284      7.4827284      10.582176      592.50899    
        22   0             -198.37667      101938.61      101938.61      101938.61      101938.61      7.4842545e-11  1.8157289e-11  2.5360181e-11  7.4834751      7.4834751      10.583232      592.68639    
        23   0             -198.38792      101243.64      101243.64      101243.64      101243.64      5.9874869e-11 -1.7551794e-11  1.2001226e-12  7.4842218      7.4842218      10.584288      592.86382    
        24   0             -198.39909      100550.17      100550.17      100550.17      100550.17     -7.7234775e-12 -5.1364875e-12  3.3255945e-11  7.4849685      7.4849685      10.585344      593.04129    
        25   0             -198.4102       99858.202      99858.202      99858.202      99858.202      4.9119363e-11 -1.2743673e-12  1.7091514e-11  7.4857152      7.4857152      10.5864        593.2188     
        26   0             -198.42122      99167.73       99167.73       99167.73       99167.73      -4.1554426e-11 -5.0622209e-11 -8.7193101e-11  7.4864619      7.4864619      10.587456      593.39634    
        27   0             -198.43218      98478.759      98478.759      98478.759      98478.759     -7.9319363e-11  2.7682177e-11  9.4022007e-12  7.4872086      7.4872086      10.588512      593.57391    
        28   0             -198.44306      97791.289      97791.289      97791.289      97791.289     -3.7691172e-11 -1.6776597e-11 -5.0180001e-12  7.4879553      7.4879553      10.589568      593.75152    
        29   0             -198.45386      97105.32       97105.32       97105.32       97105.32      -2.3266823e-11 -3.7436561e-14  1.3589472e-11  7.488702       7.488702       10.590624      593.92917    
        30   0             -198.46459      96420.847      96420.847      96420.847      96420.847     -1.8675257e-11 -5.1572153e-11 -4.8278721e-11  7.4894488      7.4894488      10.59168       594.10685    
        31   0             -198.47525      95737.876      95737.876      95737.876      95737.876     -6.3847286e-11 -4.7927556e-11 -5.5485219e-11  7.4901955      7.4901955      10.592736      594.28456    
        32   0             -198.48583      95056.41       95056.41       95056.41       95056.41      -8.0883957e-11 -1.3128448e-11 -1.2006358e-11  7.4909422      7.4909422      10.593792      594.46232    
        33   0             -198.49634      94376.447      94376.447      94376.447      94376.447     -5.1507208e-11 -2.6024695e-11 -3.0212577e-11  7.4916889      7.4916889      10.594848      594.6401     
        34   0             -198.50678      93697.984      93697.984      93697.984      93697.984      4.431473e-11   3.3007091e-11  5.2893583e-11  7.4924356      7.4924356      10.595904      594.81793    
        35   0             -198.51714      93021.005      93021.005      93021.005      93021.005     -3.195088e-12   7.4365206e-12 -1.0837141e-12  7.4931823      7.4931823      10.59696       594.99579    
        36   0             -198.52743      92345.535      92345.535      92345.535      92345.535      6.2575121e-12  3.3062079e-11  1.6026703e-11  7.493929       7.493929       10.598016      595.17368    
        37   0             -198.53765      91671.595      91671.595      91671.595      91671.595     -1.1951077e-12 -5.6132715e-11 -4.98584e-11    7.4946757      7.4946757      10.599072      595.35161    
        38   0             -198.5478       90999.183      90999.183      90999.183      90999.183     -1.2363802e-10  5.2905049e-11  2.5127098e-11  7.4954224      7.4954224      10.600128      595.52957    
        39   0             -198.55787      90328.295      90328.295      90328.295      90328.295     -8.9168945e-11 -4.6320076e-11 -4.5872178e-11  7.4961691      7.4961691      10.601184      595.70757    
        40   0             -198.56787      89658.739      89658.739      89658.739      89658.739     -9.2146052e-11 -1.8283687e-12 -1.1082153e-11  7.4969158      7.4969158      10.60224       595.88561    
        41   0             -198.5778       88990.766      88990.766      88990.766      88990.766      9.6781336e-11 -4.879167e-11  -1.760678e-11   7.4976625      7.4976625      10.603296      596.06368    
        42   0             -198.58765      88324.374      88324.374      88324.374      88324.374     -1.1959338e-10 -1.3685928e-11  1.7265898e-11  7.4984092      7.4984092      10.604352      596.24179    
        43   0             -198.59744      87659.57       87659.57       87659.57       87659.57       1.8155467e-11  7.1950822e-11  3.4521483e-11  7.4991559      7.4991559      10.605408      596.41993    
        44   0             -198.60715      86996.255      86996.255      86996.255      86996.255      3.0243862e-11  8.4600823e-12 -7.8265078e-13  7.4999026      7.4999026      10.606464      596.59811    
        45   0             -198.61679      86334.037      86334.037      86334.037      86334.037     -1.0985508e-10  1.4716892e-11 -2.1982194e-12  7.5006493      7.5006493      10.60752       596.77632    
        46   0             -198.62636      85672.88       85672.88       85672.88       85672.88      -1.0447736e-11  3.724683e-12  -2.6594237e-11  7.501396       7.501396       10.608576      596.95457    
        47   0             -198.63585      85012.786      85012.786      85012.786      85012.786     -6.7378017e-11  1.0351527e-11  1.4745341e-11  7.5021427      7.5021427      10.609632      597.13285    
        48   0             -198.64528      84353.758      84353.758      84353.758      84353.758      7.8171646e-12 -8.8966778e-12 -4.0686481e-11  7.5028894      7.5028894      10.610688      597.31117    
        49   0             -198.65463      83695.976      83695.976      83695.976      83695.976     -1.2860979e-10  3.3045572e-11 -4.1976807e-11  7.5036361      7.5036361      10.611744      597.48953    
        50   0             -198.66391      83039.178      83039.178      83039.178      83039.178      4.575892e-12  -3.478422e-11  -8.9248496e-11  7.5043828      7.5043828      10.6128        597.66792    
        51   0             -198.67313      82383.369      82383.369      82383.369      82383.369     -2.8990596e-11  1.7479897e-12 -2.7893453e-12  7.5051296      7.5051296      10.613856      597.84634    
        52   0             -198.68227      81728.544      81728.544      81728.544      81728.544      8.7150325e-11 -1.6731078e-11 -3.9039181e-11  7.5058763      7.5058763      10.614912      598.02481    
        53   0             -198.69133      81074.757      81074.757      81074.757      81074.757      6.3150264e-11 -4.6833039e-12 -9.1435933e-12  7.506623       7.506623       10.615968      598.2033     
        54   0             -198.70033      80422.051      80422.051      80422.051      80422.051     -1.6089409e-11  8.0521362e-11  2.4487115e-11  7.5073697      7.5073697      10.617024      598.38184    
        55   0             -198.70926      79770.389      79770.389      79770.389      79770.389     -6.6492957e-11 -6.9836178e-12 -9.6581949e-12  7.5081164      7.5081164      10.61808       598.5604     
        56   0             -198.71812      79119.681      79119.681      79119.681      79119.681     -2.9151621e-11  2.6255027e-11 -3.8249897e-12  7.5088631      7.5088631      10.619136      598.73901    
        57   0             -198.7269       78470.16       78470.16       78470.16       78470.16      -2.1792226e-11 -2.7101065e-11 -3.1556034e-11  7.5096098      7.5096098      10.620192      598.91765    
        58   0             -198.73562      77821.589      77821.589      77821.589      77821.589     -3.1156929e-11 -4.6392092e-12  3.6705423e-11  7.5103565      7.5103565      10.621248      599.09632    
        59   0             -198.74426      77173.866      77173.866      77173.866      77173.866      3.2223613e-11 -4.1666227e-11 -3.7362324e-11  7.5111032      7.5111032      10.622304      599.27503    
        60   0             -198.75283      76529.886      76529.886      76529.886      76529.886     -9.1319379e-11  1.9176328e-11  9.2357942e-12  7.5118499      7.5118499      10.62336       599.45378    
        61   0             -198.76134      75885.383      75885.383      75885.383      75885.383     -1.2922549e-11 -1.2162399e-11 -3.8267059e-11  7.5125966      7.5125966      10.624416      599.63256    
        62   0             -198.76977      75238.038      75238.038      75238.038      75238.038     -5.5882165e-11  3.1397807e-11  1.1973426e-11  7.5133433      7.5133433      10.625472      599.81138    
        63   0             -198.77813      74594.273      74594.273      74594.273      74594.273     -2.7071146e-11 -8.7828359e-12 -2.1086218e-11  7.51409        7.51409        10.626528      599.99023    
        64   0             -198.78643      73950.873      73950.873      73950.873      73950.873     -3.2120038e-11 -2.5784944e-11 -1.4818933e-12  7.5148367      7.5148367      10.627584      600.16912    
        65   0             -198.79465      73307.839      73307.839      73307.839      73307.839     -6.8461586e-11  2.0888469e-11  2.666613e-11   7.5155834      7.5155834      10.62864       600.34804    
        66   0             -198.8028       72665.175      72665.175      72665.175      72665.175      3.5451682e-11  3.4766715e-11 -5.368662e-12   7.5163301      7.5163301      10.629696      600.527      
        67   0             -198.81088      72022.877      72022.877      72022.877      72022.877     -1.5175831e-12  1.1955594e-11  5.3670623e-12  7.5170768      7.5170768      10.630752      600.70599    
        68   0             -198.8189       71380.947      71380.947      71380.947      71380.947      9.2137955e-11 -3.2525808e-11 -1.9611693e-12  7.5178235      7.5178235      10.631808      600.88502    
        69   0             -198.82684      70739.382      70739.382      70739.382      70739.382      4.7257498e-11 -2.3601005e-11 -1.0357808e-12  7.5185702      7.5185702      10.632864      601.06409    
        70   0             -198.83471      70098.181      70098.181      70098.181      70098.181     -1.1255213e-10 -2.2743408e-11 -6.2609089e-11  7.5193169      7.5193169      10.63392       601.24319    
        71   0             -198.84251      69457.344      69457.344      69457.344      69457.344     -5.6176122e-11  4.3550821e-11  5.5824906e-11  7.5200636      7.5200636      10.634976      601.42233    
        72   0             -198.85024      68816.879      68816.879      68816.879      68816.879     -1.1161656e-11 -5.3849446e-11  4.0285447e-12  7.5208104      7.5208104      10.636032      601.6015     
        73   0             -198.8579       68176.779      68176.779      68176.779      68176.779     -4.8974732e-11 -3.3142463e-11 -1.178645e-11   7.5215571      7.5215571      10.637088      601.78071    
        74   0             -198.8655       67537.041      67537.041      67537.041      67537.041     -2.2051459e-11  1.2927991e-12 -7.5721091e-12  7.5223038      7.5223038      10.638144      601.95995    
        75   0             -198.87302      66897.666      66897.666      66897.666      66897.666     -3.0500975e-11 -3.3233508e-11 -1.8832321e-11  7.5230505      7.5230505      10.6392        602.13923    
        76   0             -198.88047      66258.655      66258.655      66258.655      66258.655     -5.7513768e-11  5.1681178e-12  3.8539392e-11  7.5237972      7.5237972      10.640256      602.31855    
        77   0             -198.88785      65620.009      65620.009      65620.009      65620.009     -1.0591488e-11 -4.1148114e-11  1.7824699e-11  7.5245439      7.5245439      10.641312      602.4979     
        78   0             -198.89516      64981.731      64981.731      64981.731      64981.731     -9.6291131e-12  4.6854305e-11  3.1580539e-11  7.5252906      7.5252906      10.642368      602.67728    
        79   0             -198.9024       64343.814      64343.814      64343.814      64343.814     -1.114026e-10  -3.4927418e-11 -6.5281447e-12  7.5260373      7.5260373      10.643424      602.8567     
        80   0             -198.90957      63706.258      63706.258      63706.258      63706.258     -5.4901213e-11  6.2717907e-11 -2.3781923e-11  7.526784       7.526784       10.64448       603.03616    
        81   0             -198.91668      63069.067      63069.067      63069.067      63069.067     -3.3966699e-11 -9.1413361e-12 -3.7302549e-11  7.5275307      7.5275307      10.645536      603.21565    
        82   0             -198.92371      62432.237      62432.237      62432.237      62432.237     -3.9705077e-11 -3.5964877e-11 -1.7835041e-11  7.5282774      7.5282774      10.646592      603.39518    
        83   0             -198.93067      61795.769      61795.769      61795.769      61795.769      7.0729529e-12  4.9621185e-11  3.6580428e-11  7.5290241      7.5290241      10.647648      603.57475    
        84   0             -198.93756      61159.668      61159.668      61159.668      61159.668     -8.3598058e-12  3.6274928e-11 -3.9442079e-11  7.5297708      7.5297708      10.648704      603.75435    
        85   0             -198.94438      60523.928      60523.928      60523.928      60523.928     -1.6751455e-11  2.993172e-11   4.0682105e-11  7.5305175      7.5305175      10.64976       603.93398    
        86   0             -198.95113      59888.548      59888.548      59888.548      59888.548     -2.3868324e-11  2.3077007e-11 -2.926032e-11   7.5312642      7.5312642      10.650816      604.11365    
        87   0             -198.95781      59253.528      59253.528      59253.528      59253.528     -2.0457736e-11  6.2403454e-11  2.1340804e-11  7.5320109      7.5320109      10.651872      604.29336    
        88   0             -198.96443      58618.87       58618.87       58618.87       58618.87      -6.84174e-11    2.4939246e-11 -1.8686043e-11  7.5327576      7.5327576      10.652928      604.4731     
        89   0             -198.97097      57984.573      57984.573      57984.573      57984.573     -9.4284976e-11  8.3473828e-12  5.8358135e-11  7.5335043      7.5335043      10.653984      604.65288    
        90   0             -198.97744      57350.638      57350.638      57350.638      57350.638      8.8742694e-11 -1.6836849e-11 -6.0950864e-11  7.534251       7.534251       10.65504       604.83269    
        91   0             -198.98384      56717.063      56717.063      56717.063      56717.063      6.4313815e-13  2.3189724e-11  2.6203286e-11  7.5349977      7.5349977      10.656096      605.01254    
        92   0             -198.99018      56083.85       56083.85       56083.85       56083.85       3.7290925e-11 -1.3667216e-11 -1.7488158e-11  7.5357444      7.5357444      10.657152      605.19243    
        93   0             -198.99644      55450.992      55450.992      55450.992      55450.992      4.0273248e-11  1.3406052e-11 -4.9584026e-12  7.5364912      7.5364912      10.658208      605.37235    
        94   0             -199.00263      54818.495      54818.495      54818.495      54818.495      2.6877571e-11 -5.4012168e-11 -6.2677615e-11  7.5372379      7.5372379      10.659264      605.5523     
        95   0             -199.00875      54186.364      54186.364      54186.364      54186.364     -1.1379196e-12  2.1840714e-11  2.8154333e-11  7.5379846      7.5379846      10.66032       605.73229    
        96   0             -199.01481      53554.587      53554.587      53554.587      53554.587     -1.0574003e-10  3.0457826e-11  4.4622551e-11  7.5387313      7.5387313      10.661376      605.91232    
        97   0             -199.02079      52923.167      52923.167      52923.167      52923.167      1.2916885e-10 -6.1667946e-11 -4.6040019e-11  7.539478       7.539478       10.662432      606.09239    
        98   0             -199.0267       52292.105      52292.105      52292.105      52292.105      2.0959406e-11  5.1344127e-11  7.1148291e-11  7.5402247      7.5402247      10.663488      606.27248    
        99   0             -199.03255      51661.405      51661.405      51661.405      51661.405      2.7607603e-11  2.4197899e-12 -4.3776199e-11  7.5409714      7.5409714      10.664544      606.45262    
       100   0             -199.03832      51031.066      51031.066      51031.066      51031.066     -5.3769356e-11  1.3818028e-11  2.4887112e-11  7.5417181      7.5417181      10.6656        606.63279    
Loop time of 0.00675443 on 1 procs for 100 steps with 54 atoms

100.0% CPU use with 1 MPI tasks x 1 OpenMP threads

Minimization stats:
  Stopping criterion = max iterations
  Energy initial, next-to-last, final = 
     -198.109993098667  -199.032547372711  -199.038321424529
  Force two-norm initial, final = 74.858564 33.135186
  Force max component initial, final = 43.219612 19.130609
  Final line search alpha, max atom move = 5.1644686e-06 9.8799428e-05
  Iterations, force evaluations = 100 100

MPI task timing breakdown:
Section |  min time  |  avg time  |  max time  |%varavg| %total
---------------------------------------------------------------
Pair    | 0.005163   | 0.005163   | 0.005163   |   0.0 | 76.44
Neigh   | 0          | 0          | 0          |   0.0 |  0.00
Comm    | 0.00019828 | 0.00019828 | 0.00019828 |   0.0 |  2.94
Output  | 0.00054211 | 0.00054211 | 0.00054211 |   0.0 |  8.03
Modify  | 0          | 0          | 0          |   0.0 |  0.00
Other   |            | 0.0008511  |            |       | 12.60

Nlocal:             54 ave          54 max          54 min
Histogram: 1 0 0 0 0 0 0 0 0 0
Nghost:            897 ave         897 max         897 min
Histogram: 1 0 0 0 0 0 0 0 0 0
Neighs:           3618 ave        3618 max        3618 min
Histogram: 1 0 0 0 0 0 0 0 0 0

Total # of neighbors = 3618
Ave neighs/atom = 67
Neighbor list builds = 0
Dangerous builds = 0

variable tmp equal pxx
variable pxx0 equal ${tmp}
variable pxx0 equal 51031.0660256726
variable tmp equal pyy
variable pyy0 equal ${tmp}
variable pyy0 equal 51031.0660256725
variable tmp equal pzz
variable pzz0 equal ${tmp}
variable pzz0 equal 51031.0660256777
variable tmp equal pyz
variable pyz0 equal ${tmp}
variable pyz0 equal 2.48871115397498e-11
variable tmp equal pxz
variable pxz0 equal ${tmp}
variable pxz0 equal 1.381802805668e-11
variable tmp equal pxy
variable pxy0 equal ${tmp}
variable pxy0 equal -5.3769355859813e-11

variable tmp equal lx
variable lx0 equal ${tmp}
variable lx0 equal 7.54171808542327
variable tmp equal ly
variable ly0 equal ${tmp}
variable ly0 equal 7.54171808542327
variable tmp equal lz
variable lz0 equal ${tmp}
variable lz0 equal 10.6655999999999

# These formulas define the derivatives w.r.t. strain components
# Constants uses $, variables use v_
variable d1 equal -(v_pxx1-${pxx0})/(v_delta/v_len0)*${cfac}
variable d1 equal -(v_pxx1-51031.0660256726)/(v_delta/v_len0)*${cfac}
variable d1 equal -(v_pxx1-51031.0660256726)/(v_delta/v_len0)*0.0001
variable d2 equal -(v_pyy1-${pyy0})/(v_delta/v_len0)*${cfac}
variable d2 equal -(v_pyy1-51031.0660256725)/(v_delta/v_len0)*${cfac}
variable d2 equal -(v_pyy1-51031.0660256725)/(v_delta/v_len0)*0.0001
variable d3 equal -(v_pzz1-${pzz0})/(v_delta/v_len0)*${cfac}
variable d3 equal -(v_pzz1-51031.0660256777)/(v_delta/v_len0)*${cfac}
variable d3 equal -(v_pzz1-51031.0660256777)/(v_delta/v_len0)*0.0001
variable d4 equal -(v_pyz1-${pyz0})/(v_delta/v_len0)*${cfac}
variable d4 equal -(v_pyz1-2.48871115397498e-11)/(v_delta/v_len0)*${cfac}
variable d4 equal -(v_pyz1-2.48871115397498e-11)/(v_delta/v_len0)*0.0001
variable d5 equal -(v_pxz1-${pxz0})/(v_delta/v_len0)*${cfac}
variable d5 equal -(v_pxz1-1.381802805668e-11)/(v_delta/v_len0)*${cfac}
variable d5 equal -(v_pxz1-1.381802805668e-11)/(v_delta/v_len0)*0.0001
variable d6 equal -(v_pxy1-${pxy0})/(v_delta/v_len0)*${cfac}
variable d6 equal -(v_pxy1--5.3769355859813e-11)/(v_delta/v_len0)*${cfac}
variable d6 equal -(v_pxy1--5.3769355859813e-11)/(v_delta/v_len0)*0.0001

displace_atoms all random ${atomjiggle} ${atomjiggle} ${atomjiggle} 87287 units box
displace_atoms all random 1e-05 ${atomjiggle} ${atomjiggle} 87287 units box
displace_atoms all random 1e-05 1e-05 ${atomjiggle} 87287 units box
displace_atoms all random 1e-05 1e-05 1e-05 87287 units box
Displacing atoms ...

# Write restart
unfix 3
write_restart restart.equil
System init for write_restart ...

# uxx Perturbation

variable dir equal 1
include displace.mod
# NOTE: This script should not need to be
# modified. See in.elastic for more info.
#
# Find which reference length to use

if "${dir} == 1" then    "variable len0 equal ${lx0}"
variable len0 equal ${lx0}
variable len0 equal 7.54171808542327
if "${dir} == 2" then    "variable len0 equal ${ly0}"
if "${dir} == 3" then    "variable len0 equal ${lz0}"
if "${dir} == 4" then    "variable len0 equal ${lz0}"
if "${dir} == 5" then    "variable len0 equal ${lz0}"
if "${dir} == 6" then    "variable len0 equal ${ly0}"

# Reset box and simulation parameters

clear
OMP_NUM_THREADS environment is not set. Defaulting to 1 thread. (src/comm.cpp:98)
  using 1 OpenMP thread(s) per MPI task
box tilt large

The 'box' command has been removed and will be ignored

read_restart restart.equil
Reading restart file ...
  restart file = 28 Mar 2023, LAMMPS = 28 Mar 2023
  restoring atom style atomic from restart
  triclinic box = (-0.037335238 -0.037335238 -0.0528) to (7.5043828 7.5043828 10.6128) with tilt (0 0 0)
  1 by 1 by 1 MPI processor grid
  pair style eam/alloy stores no restart info
  54 atoms
  read_restart CPU = 0.000 seconds
include potential.mod
# Choose potential
pair_style	eam/alloy
pair_coeff	* * NiFeCr.eam.alloy Cr

# Setup neighbor style
neighbor 1.0 nsq
neigh_modify once no every 1 delay 0 check yes

# Setup minimization style
min_style            cg
min_modify           dmax ${dmax} line quadratic
min_modify           dmax 0.01 line quadratic

# Setup output
thermo          1
thermo_style custom step temp pe press pxx pyy pzz pxy pxz pyz lx ly lz vol
thermo_modify norm no

# Negative deformation

variable delta equal -${up}*${len0}
variable delta equal -1e-06*${len0}
variable delta equal -1e-06*7.54171808542327
variable deltaxy equal -${up}*xy
variable deltaxy equal -1e-06*xy
variable deltaxz equal -${up}*xz
variable deltaxz equal -1e-06*xz
variable deltayz equal -${up}*yz
variable deltayz equal -1e-06*yz
if "${dir} == 1" then    "change_box all x delta 0 ${delta} xy delta ${deltaxy} xz delta ${deltaxz} remap units box"
change_box all x delta 0 ${delta} xy delta ${deltaxy} xz delta ${deltaxz} remap units box
change_box all x delta 0 -7.54171808542327e-06 xy delta ${deltaxy} xz delta ${deltaxz} remap units box
change_box all x delta 0 -7.54171808542327e-06 xy delta -0 xz delta ${deltaxz} remap units box
change_box all x delta 0 -7.54171808542327e-06 xy delta -0 xz delta -0 remap units box
Changing box ...
  triclinic box = (-0.037335238 -0.037335238 -0.0528) to (7.5043753 7.5043828 10.6128) with tilt (0 0 0)
  triclinic box = (-0.037335238 -0.037335238 -0.0528) to (7.5043753 7.5043828 10.6128) with tilt (0 0 0)
  triclinic box = (-0.037335238 -0.037335238 -0.0528) to (7.5043753 7.5043828 10.6128) with tilt (0 0 0)
if "${dir} == 2" then    "change_box all y delta 0 ${delta} yz delta ${deltayz} remap units box"
if "${dir} == 3" then    "change_box all z delta 0 ${delta} remap units box"
if "${dir} == 4" then    "change_box all yz delta ${delta} remap units box"
if "${dir} == 5" then    "change_box all xz delta ${delta} remap units box"
if "${dir} == 6" then    "change_box all xy delta ${delta} remap units box"

# Relax atoms positions

minimize ${etol} ${ftol} ${maxiter} ${maxeval}
minimize 0 ${ftol} ${maxiter} ${maxeval}
minimize 0 1e-10 ${maxiter} ${maxeval}
minimize 0 1e-10 100 ${maxeval}
minimize 0 1e-10 100 1000
Neighbor list info ...
  update: every = 1 steps, delay = 0 steps, check = yes
  max neighbors/atom: 2000, page size: 100000
  master list distance cutoff = 6.6
  ghost atom cutoff = 6.6
  1 neighbor lists, perpetual/occasional/extra = 1 0 0
  (1) pair eam/alloy, perpetual
      attributes: half, newton on
      pair build: half/nsq/newton
      stencil: none
      bin: none
Per MPI rank memory allocation (min/avg/max) = 4.45 | 4.45 | 4.45 Mbytes
   Step          Temp          PotEng         Press           Pxx            Pyy            Pzz            Pxy            Pxz            Pyz             Lx             Ly             Lz           Volume    
       100   0             -199.0383       51033.188      51034.741      51031.793      51033.029     -1.871839e-05  -8.770688e-06   4.3969582e-06  7.5417105      7.5417181      10.6656        606.63218    
       101   0             -199.0383       51033.188      51034.741      51031.793      51033.029     -8.1846722e-06 -2.4721674e-06 -9.8166203e-07  7.5417105      7.5417181      10.6656        606.63218    
       102   0             -199.0383       51033.188      51034.741      51031.793      51033.029     -3.3500869e-06  2.3571692e-07  5.7675568e-07  7.5417105      7.5417181      10.6656        606.63218    
       103   0             -199.0383       51033.188      51034.741      51031.793      51033.029     -1.9154902e-06 -1.2815248e-07 -3.4595942e-08  7.5417105      7.5417181      10.6656        606.63218    
       104   0             -199.0383       51033.188      51034.741      51031.793      51033.029     -7.1859156e-07 -6.8307492e-08 -1.800938e-08   7.5417105      7.5417181      10.6656        606.63218    
       105   0             -199.0383       51033.188      51034.741      51031.793      51033.029     -1.6721689e-07 -4.9281918e-08 -7.5121033e-09  7.5417105      7.5417181      10.6656        606.63218    
       106   0             -199.0383       51033.188      51034.741      51031.793      51033.029     -1.3741988e-09 -7.462549e-09   6.0840802e-09  7.5417105      7.5417181      10.6656        606.63218    
       107   0             -199.0383       51033.188      51034.741      51031.793      51033.029      1.7690392e-10 -5.5638694e-10  2.6243284e-11  7.5417105      7.5417181      10.6656        606.63218    
       108   0             -199.0383       51033.188      51034.741      51031.793      51033.029     -5.1686441e-09  4.0431517e-10  1.2509543e-10  7.5417105      7.5417181      10.6656        606.63218    
       109   0             -199.0383       51033.188      51034.741      51031.793      51033.029     -3.2960611e-09  2.0913991e-10  7.0457353e-10  7.5417105      7.5417181      10.6656        606.63218    
       110   0             -199.0383       51033.188      51034.741      51031.793      51033.029     -2.514004e-10  -3.5402776e-10  4.1747347e-11  7.5417105      7.5417181      10.6656        606.63218    
       111   0             -199.0383       51033.188      51034.741      51031.793      51033.029     -9.0880198e-11 -9.7459346e-11  7.1252715e-11  7.5417105      7.5417181      10.6656        606.63218    
       112   0             -199.0383       51033.188      51034.741      51031.793      51033.029      2.3622621e-11  1.2461895e-12  4.471621e-11   7.5417105      7.5417181      10.6656        606.63218    
       113   0             -199.0383       51033.188      51034.741      51031.793      51033.029      5.1185399e-11 -5.6518357e-11  4.3103494e-11  7.5417105      7.5417181      10.6656        606.63218    
       114   0             -199.0383       51033.188      51034.741      51031.793      51033.029      3.2199336e-11 -5.1313683e-12 -2.9505368e-11  7.5417105      7.5417181      10.6656        606.63218    
       115   0             -199.0383       51033.188      51034.741      51031.793      51033.029     -1.6200463e-11  4.2333789e-11  1.1069095e-11  7.5417105      7.5417181      10.6656        606.63218    
       116   0             -199.0383       51033.188      51034.741      51031.793      51033.029     -8.8626062e-11  5.2046736e-12 -2.7929305e-11  7.5417105      7.5417181      10.6656        606.63218    
       117   0             -199.0383       51033.188      51034.741      51031.793      51033.029     -4.5504241e-11  3.5919578e-12  8.6353599e-11  7.5417105      7.5417181      10.6656        606.63218    
       118   0             -199.0383       51033.188      51034.741      51031.793      51033.029     -2.3182789e-11 -1.5833937e-11  7.2205683e-12  7.5417105      7.5417181      10.6656        606.63218    
       119   0             -199.0383       51033.188      51034.741      51031.793      51033.029      3.6121168e-11  6.1283199e-11 -1.3524821e-11  7.5417105      7.5417181      10.6656        606.63218    
       120   0             -199.0383       51033.188      51034.741      51031.793      51033.029     -2.5950063e-11 -5.1313683e-13  4.9884231e-11  7.5417105      7.5417181      10.6656        606.63218    
       121   0             -199.0383       51033.188      51034.741      51031.793      51033.029      1.3194947e-12  1.7849831e-11 -2.7489473e-11  7.5417105      7.5417181      10.6656        606.63218    
       122   0             -199.0383       51033.188      51034.741      51031.793      51033.029      5.3402883e-11 -4.486282e-11   7.0006525e-12  7.5417105      7.5417181      10.6656        606.63218    
Loop time of 0.00174426 on 1 procs for 22 steps with 54 atoms

84.0% CPU use with 1 MPI tasks x 1 OpenMP threads

Minimization stats:
  Stopping criterion = force tolerance
  Energy initial, next-to-last, final = 
     -199.038302074553  -199.038302101915  -199.038302101915
  Force two-norm initial, final = 0.00096838784 1.0021016e-11
  Force max component initial, final = 0.00019903295 2.557482e-12
  Final line search alpha, max atom move = 1 2.557482e-12
  Iterations, force evaluations = 22 44

MPI task timing breakdown:
Section |  min time  |  avg time  |  max time  |%varavg| %total
---------------------------------------------------------------
Pair    | 0.0015286  | 0.0015286  | 0.0015286  |   0.0 | 87.64
Neigh   | 0          | 0          | 0          |   0.0 |  0.00
Comm    | 7.9695e-05 | 7.9695e-05 | 7.9695e-05 |   0.0 |  4.57
Output  | 9.3893e-05 | 9.3893e-05 | 9.3893e-05 |   0.0 |  5.38
Modify  | 0          | 0          | 0          |   0.0 |  0.00
Other   |            | 4.206e-05  |            |       |  2.41

Nlocal:             54 ave          54 max          54 min
Histogram: 1 0 0 0 0 0 0 0 0 0
Nghost:            897 ave         897 max         897 min
Histogram: 1 0 0 0 0 0 0 0 0 0
Neighs:           2322 ave        2322 max        2322 min
Histogram: 1 0 0 0 0 0 0 0 0 0

Total # of neighbors = 2322
Ave neighs/atom = 43
Neighbor list builds = 0
Dangerous builds = 0

# Obtain new stress tensor

variable tmp equal pxx
variable pxx1 equal ${tmp}
variable pxx1 equal 51034.7409889932
variable tmp equal pyy
variable pyy1 equal ${tmp}
variable pyy1 equal 51031.7926617717
variable tmp equal pzz
variable pzz1 equal ${tmp}
variable pzz1 equal 51033.0290799128
variable tmp equal pxy
variable pxy1 equal ${tmp}
variable pxy1 equal 5.34028833195483e-11
variable tmp equal pxz
variable pxz1 equal ${tmp}
variable pxz1 equal -4.48628203041367e-11
variable tmp equal pyz
variable pyz1 equal ${tmp}
variable pyz1 equal 7.0006525147795e-12

# Compute elastic constant from pressure tensor

variable C1neg equal ${d1}
variable C1neg equal 367.496332060546
variable C2neg equal ${d2}
variable C2neg equal 72.6636099199822
variable C3neg equal ${d3}
variable C3neg equal 196.305423510057
variable C4neg equal ${d4}
variable C4neg equal -1.78864590249703e-09
variable C5neg equal ${d5}
variable C5neg equal -5.86808483608167e-09
variable C6neg equal ${d6}
variable C6neg equal 1.07172239179361e-08

# Reset box and simulation parameters

clear
OMP_NUM_THREADS environment is not set. Defaulting to 1 thread. (src/comm.cpp:98)
  using 1 OpenMP thread(s) per MPI task
box tilt large

The 'box' command has been removed and will be ignored

read_restart restart.equil
Reading restart file ...
  restart file = 28 Mar 2023, LAMMPS = 28 Mar 2023
  restoring atom style atomic from restart
  triclinic box = (-0.037335238 -0.037335238 -0.0528) to (7.5043828 7.5043828 10.6128) with tilt (0 0 0)
  1 by 1 by 1 MPI processor grid
  pair style eam/alloy stores no restart info
  54 atoms
  read_restart CPU = 0.000 seconds
include potential.mod
# Choose potential
pair_style	eam/alloy
pair_coeff	* * NiFeCr.eam.alloy Cr

# Setup neighbor style
neighbor 1.0 nsq
neigh_modify once no every 1 delay 0 check yes

# Setup minimization style
min_style            cg
min_modify           dmax ${dmax} line quadratic
min_modify           dmax 0.01 line quadratic

# Setup output
thermo          1
thermo_style custom step temp pe press pxx pyy pzz pxy pxz pyz lx ly lz vol
thermo_modify norm no

# Positive deformation

variable delta equal ${up}*${len0}
variable delta equal 1e-06*${len0}
variable delta equal 1e-06*7.54171808542327
variable deltaxy equal ${up}*xy
variable deltaxy equal 1e-06*xy
variable deltaxz equal ${up}*xz
variable deltaxz equal 1e-06*xz
variable deltayz equal ${up}*yz
variable deltayz equal 1e-06*yz
if "${dir} == 1" then    "change_box all x delta 0 ${delta} xy delta ${deltaxy} xz delta ${deltaxz} remap units box"
change_box all x delta 0 ${delta} xy delta ${deltaxy} xz delta ${deltaxz} remap units box
change_box all x delta 0 7.54171808542327e-06 xy delta ${deltaxy} xz delta ${deltaxz} remap units box
change_box all x delta 0 7.54171808542327e-06 xy delta 0 xz delta ${deltaxz} remap units box
change_box all x delta 0 7.54171808542327e-06 xy delta 0 xz delta 0 remap units box
Changing box ...
  triclinic box = (-0.037335238 -0.037335238 -0.0528) to (7.5043904 7.5043828 10.6128) with tilt (0 0 0)
  triclinic box = (-0.037335238 -0.037335238 -0.0528) to (7.5043904 7.5043828 10.6128) with tilt (0 0 0)
  triclinic box = (-0.037335238 -0.037335238 -0.0528) to (7.5043904 7.5043828 10.6128) with tilt (0 0 0)
if "${dir} == 2" then    "change_box all y delta 0 ${delta} yz delta ${deltayz} remap units box"
if "${dir} == 3" then    "change_box all z delta 0 ${delta} remap units box"
if "${dir} == 4" then    "change_box all yz delta ${delta} remap units box"
if "${dir} == 5" then    "change_box all xz delta ${delta} remap units box"
if "${dir} == 6" then    "change_box all xy delta ${delta} remap units box"

# Relax atoms positions

minimize ${etol} ${ftol} ${maxiter} ${maxeval}
minimize 0 ${ftol} ${maxiter} ${maxeval}
minimize 0 1e-10 ${maxiter} ${maxeval}
minimize 0 1e-10 100 ${maxeval}
minimize 0 1e-10 100 1000
Neighbor list info ...
  update: every = 1 steps, delay = 0 steps, check = yes
  max neighbors/atom: 2000, page size: 100000
  master list distance cutoff = 6.6
  ghost atom cutoff = 6.6
  1 neighbor lists, perpetual/occasional/extra = 1 0 0
  (1) pair eam/alloy, perpetual
      attributes: half, newton on
      pair build: half/nsq/newton
      stencil: none
      bin: none
Per MPI rank memory allocation (min/avg/max) = 4.45 | 4.45 | 4.45 Mbytes
   Step          Temp          PotEng         Press           Pxx            Pyy            Pzz            Pxy            Pxz            Pyz             Lx             Ly             Lz           Volume    
       100   0             -199.03834      51028.944      51027.391      51030.339      51029.103     -1.8718423e-05 -8.7706678e-06  4.3970126e-06  7.5417256      7.5417181      10.6656        606.6334     
       101   0             -199.03834      51028.944      51027.391      51030.339      51029.103     -8.1845961e-06 -2.4721707e-06 -9.8171123e-07  7.5417256      7.5417181      10.6656        606.6334     
       102   0             -199.03834      51028.944      51027.391      51030.339      51029.103     -3.3501135e-06  2.357307e-07   5.7681999e-07  7.5417256      7.5417181      10.6656        606.6334     
       103   0             -199.03834      51028.944      51027.391      51030.339      51029.103     -1.9154625e-06 -1.281229e-07  -3.446473e-08   7.5417256      7.5417181      10.6656        606.6334     
       104   0             -199.03834      51028.944      51027.391      51030.339      51029.103     -7.1858422e-07 -6.8201613e-08 -1.8097274e-08  7.5417256      7.5417181      10.6656        606.6334     
       105   0             -199.03834      51028.944      51027.391      51030.339      51029.103     -1.6727001e-07 -4.9309199e-08 -7.5351794e-09  7.5417256      7.5417181      10.6656        606.6334     
       106   0             -199.03834      51028.944      51027.391      51030.339      51029.103     -1.3738295e-09 -7.4423018e-09  6.0592542e-09  7.5417256      7.5417181      10.6656        606.6334     
       107   0             -199.03834      51028.944      51027.391      51030.339      51029.103      1.9339722e-10 -6.0619665e-10 -6.6707655e-12  7.5417256      7.5417181      10.6656        606.6334     
       108   0             -199.03834      51028.944      51027.391      51030.339      51029.103     -5.1311382e-09  2.9245076e-10  1.4265175e-10  7.5417256      7.5417181      10.6656        606.6334     
       109   0             -199.03834      51028.944      51027.391      51030.339      51029.103     -3.2656146e-09  2.1474734e-10  6.9672847e-10  7.5417256      7.5417181      10.6656        606.6334     
       110   0             -199.03834      51028.944      51027.391      51030.339      51029.103     -3.0163222e-10 -2.6921304e-10  6.7294096e-11  7.5417256      7.5417181      10.6656        606.6334     
       111   0             -199.03834      51028.944      51027.391      51030.339      51029.103     -6.1851191e-11 -1.3286552e-10  1.3561446e-11  7.5417256      7.5417181      10.6656        606.6334     
       112   0             -199.03834      51028.944      51027.391      51030.339      51029.103     -3.0806475e-11 -3.511315e-11   8.4300883e-13  7.5417256      7.5417181      10.6656        606.6334     
       113   0             -199.03834      51028.944      51027.391      51030.339      51029.103     -1.5815579e-11  6.0916551e-11 -2.6609757e-11  7.5417256      7.5417181      10.6656        606.6334     
       114   0             -199.03834      51028.944      51027.391      51030.339      51029.103     -1.3579773e-11 -4.8747902e-11  8.6866562e-12  7.5417256      7.5417181      10.6656        606.6334     
       115   0             -199.03834      51028.944      51027.391      51030.339      51029.103      3.0494928e-11  4.5925655e-11  5.4429048e-11  7.5417256      7.5417181      10.6656        606.6334     
       116   0             -199.03834      51028.944      51027.391      51030.339      51029.103     -1.9810707e-11  7.2058928e-11  5.8424177e-11  7.5417256      7.5417181      10.6656        606.6334     
       117   0             -199.03834      51028.944      51027.391      51030.339      51029.103      1.9902339e-11 -3.2180946e-11 -6.505829e-11   7.5417256      7.5417181      10.6656        606.6334     
       118   0             -199.03834      51028.944      51027.391      51030.339      51029.103     -2.7141219e-11 -4.5449172e-11  1.5687295e-11  7.5417256      7.5417181      10.6656        606.6334     
       119   0             -199.03834      51028.944      51027.391      51030.339      51029.103      2.1295136e-11  2.8112512e-11  1.1985386e-11  7.5417256      7.5417181      10.6656        606.6334     
       120   0             -199.03834      51028.944      51027.391      51030.339      51029.103     -1.1912081e-11  7.6347278e-11  3.324387e-11   7.5417256      7.5417181      10.6656        606.6334     
       121   0             -199.03834      51028.944      51027.391      51030.339      51029.103      4.4386247e-11 -2.4190688e-11  2.0048949e-11  7.5417256      7.5417181      10.6656        606.6334     
       122   0             -199.03834      51028.944      51027.391      51030.339      51029.103     -4.3030103e-11 -4.6365485e-11 -3.3573743e-11  7.5417256      7.5417181      10.6656        606.6334     
Loop time of 0.00182149 on 1 procs for 22 steps with 54 atoms

100.0% CPU use with 1 MPI tasks x 1 OpenMP threads

Minimization stats:
  Stopping criterion = force tolerance
  Energy initial, next-to-last, final = 
     -199.038340718383  -199.038340745745  -199.038340745745
  Force two-norm initial, final = 0.00096838673 1.0023573e-11
  Force max component initial, final = 0.00019903282 2.5957292e-12
  Final line search alpha, max atom move = 1 2.5957292e-12
  Iterations, force evaluations = 22 44

MPI task timing breakdown:
Section |  min time  |  avg time  |  max time  |%varavg| %total
---------------------------------------------------------------
Pair    | 0.0015861  | 0.0015861  | 0.0015861  |   0.0 | 87.08
Neigh   | 0          | 0          | 0          |   0.0 |  0.00
Comm    | 7.9316e-05 | 7.9316e-05 | 7.9316e-05 |   0.0 |  4.35
Output  | 0.00010372 | 0.00010372 | 0.00010372 |   0.0 |  5.69
Modify  | 0          | 0          | 0          |   0.0 |  0.00
Other   |            | 5.232e-05  |            |       |  2.87

Nlocal:             54 ave          54 max          54 min
Histogram: 1 0 0 0 0 0 0 0 0 0
Nghost:            897 ave         897 max         897 min
Histogram: 1 0 0 0 0 0 0 0 0 0
Neighs:           2322 ave        2322 max        2322 min
Histogram: 1 0 0 0 0 0 0 0 0 0

Total # of neighbors = 2322
Ave neighs/atom = 43
Neighbor list builds = 0
Dangerous builds = 0

# Obtain new stress tensor

variable tmp equal pe
variable e1 equal ${tmp}
variable e1 equal -199.038340745745
variable tmp equal press
variable p1 equal ${tmp}
variable p1 equal 51028.944477849
variable tmp equal pxx
variable pxx1 equal ${tmp}
variable pxx1 equal 51027.3910645013
variable tmp equal pyy
variable pyy1 equal ${tmp}
variable pyy1 equal 51030.3393889422
variable tmp equal pzz
variable pzz1 equal ${tmp}
variable pzz1 equal 51029.1029801036
variable tmp equal pxy
variable pxy1 equal ${tmp}
variable pxy1 equal -4.30301026954736e-11
variable tmp equal pxz
variable pxz1 equal ${tmp}
variable pxz1 equal -4.63654854427377e-11
variable tmp equal pyz
variable pyz1 equal ${tmp}
variable pyz1 equal -3.35737428186148e-11

# Compute elastic constant from pressure tensor

variable C1pos equal ${d1}
variable C1pos equal 367.496117129485
variable C2pos equal ${d2}
variable C2pos equal 72.6636730301834
variable C3pos equal ${d3}
variable C3pos equal 196.304557409894
variable C4pos equal ${d4}
variable C4pos equal 5.84608543583646e-09
variable C5pos equal ${d5}
variable C5pos equal 6.01835134994177e-09
variable C6pos equal ${d6}
variable C6pos equal -1.07392531643394e-09

# Combine positive and negative

variable C1${dir} equal 0.5*(${C1neg}+${C1pos})
variable C11 equal 0.5*(${C1neg}+${C1pos})
variable C11 equal 0.5*(367.496332060546+${C1pos})
variable C11 equal 0.5*(367.496332060546+367.496117129485)
variable C2${dir} equal 0.5*(${C2neg}+${C2pos})
variable C21 equal 0.5*(${C2neg}+${C2pos})
variable C21 equal 0.5*(72.6636099199822+${C2pos})
variable C21 equal 0.5*(72.6636099199822+72.6636730301834)
variable C3${dir} equal 0.5*(${C3neg}+${C3pos})
variable C31 equal 0.5*(${C3neg}+${C3pos})
variable C31 equal 0.5*(196.305423510057+${C3pos})
variable C31 equal 0.5*(196.305423510057+196.304557409894)
variable C4${dir} equal 0.5*(${C4neg}+${C4pos})
variable C41 equal 0.5*(${C4neg}+${C4pos})
variable C41 equal 0.5*(-1.78864590249703e-09+${C4pos})
variable C41 equal 0.5*(-1.78864590249703e-09+5.84608543583646e-09)
variable C5${dir} equal 0.5*(${C5neg}+${C5pos})
variable C51 equal 0.5*(${C5neg}+${C5pos})
variable C51 equal 0.5*(-5.86808483608167e-09+${C5pos})
variable C51 equal 0.5*(-5.86808483608167e-09+6.01835134994177e-09)
variable C6${dir} equal 0.5*(${C6neg}+${C6pos})
variable C61 equal 0.5*(${C6neg}+${C6pos})
variable C61 equal 0.5*(1.07172239179361e-08+${C6pos})
variable C61 equal 0.5*(1.07172239179361e-08+-1.07392531643394e-09)

# Delete dir to make sure it is not reused

variable dir delete


# uyy Perturbation

variable dir equal 2
include displace.mod
# NOTE: This script should not need to be
# modified. See in.elastic for more info.
#
# Find which reference length to use

if "${dir} == 1" then    "variable len0 equal ${lx0}"
if "${dir} == 2" then    "variable len0 equal ${ly0}"
variable len0 equal ${ly0}
variable len0 equal 7.54171808542327
if "${dir} == 3" then    "variable len0 equal ${lz0}"
if "${dir} == 4" then    "variable len0 equal ${lz0}"
if "${dir} == 5" then    "variable len0 equal ${lz0}"
if "${dir} == 6" then    "variable len0 equal ${ly0}"

# Reset box and simulation parameters

clear
OMP_NUM_THREADS environment is not set. Defaulting to 1 thread. (src/comm.cpp:98)
  using 1 OpenMP thread(s) per MPI task
box tilt large

The 'box' command has been removed and will be ignored

read_restart restart.equil
Reading restart file ...
  restart file = 28 Mar 2023, LAMMPS = 28 Mar 2023
  restoring atom style atomic from restart
  triclinic box = (-0.037335238 -0.037335238 -0.0528) to (7.5043828 7.5043828 10.6128) with tilt (0 0 0)
  1 by 1 by 1 MPI processor grid
  pair style eam/alloy stores no restart info
  54 atoms
  read_restart CPU = 0.000 seconds
include potential.mod
# Choose potential
pair_style	eam/alloy
pair_coeff	* * NiFeCr.eam.alloy Cr

# Setup neighbor style
neighbor 1.0 nsq
neigh_modify once no every 1 delay 0 check yes

# Setup minimization style
min_style            cg
min_modify           dmax ${dmax} line quadratic
min_modify           dmax 0.01 line quadratic

# Setup output
thermo          1
thermo_style custom step temp pe press pxx pyy pzz pxy pxz pyz lx ly lz vol
thermo_modify norm no

# Negative deformation

variable delta equal -${up}*${len0}
variable delta equal -1e-06*${len0}
variable delta equal -1e-06*7.54171808542327
variable deltaxy equal -${up}*xy
variable deltaxy equal -1e-06*xy
variable deltaxz equal -${up}*xz
variable deltaxz equal -1e-06*xz
variable deltayz equal -${up}*yz
variable deltayz equal -1e-06*yz
if "${dir} == 1" then    "change_box all x delta 0 ${delta} xy delta ${deltaxy} xz delta ${deltaxz} remap units box"
if "${dir} == 2" then    "change_box all y delta 0 ${delta} yz delta ${deltayz} remap units box"
change_box all y delta 0 ${delta} yz delta ${deltayz} remap units box
change_box all y delta 0 -7.54171808542327e-06 yz delta ${deltayz} remap units box
change_box all y delta 0 -7.54171808542327e-06 yz delta -0 remap units box
Changing box ...
  triclinic box = (-0.037335238 -0.037335238 -0.0528) to (7.5043828 7.5043753 10.6128) with tilt (0 0 0)
  triclinic box = (-0.037335238 -0.037335238 -0.0528) to (7.5043828 7.5043753 10.6128) with tilt (0 0 0)
if "${dir} == 3" then    "change_box all z delta 0 ${delta} remap units box"
if "${dir} == 4" then    "change_box all yz delta ${delta} remap units box"
if "${dir} == 5" then    "change_box all xz delta ${delta} remap units box"
if "${dir} == 6" then    "change_box all xy delta ${delta} remap units box"

# Relax atoms positions

minimize ${etol} ${ftol} ${maxiter} ${maxeval}
minimize 0 ${ftol} ${maxiter} ${maxeval}
minimize 0 1e-10 ${maxiter} ${maxeval}
minimize 0 1e-10 100 ${maxeval}
minimize 0 1e-10 100 1000
Neighbor list info ...
  update: every = 1 steps, delay = 0 steps, check = yes
  max neighbors/atom: 2000, page size: 100000
  master list distance cutoff = 6.6
  ghost atom cutoff = 6.6
  1 neighbor lists, perpetual/occasional/extra = 1 0 0
  (1) pair eam/alloy, perpetual
      attributes: half, newton on
      pair build: half/nsq/newton
      stencil: none
      bin: none
Per MPI rank memory allocation (min/avg/max) = 4.45 | 4.45 | 4.45 Mbytes
   Step          Temp          PotEng         Press           Pxx            Pyy            Pzz            Pxy            Pxz            Pyz             Lx             Ly             Lz           Volume    
       100   0             -199.0383       51033.188      51031.793      51034.741      51033.029     -1.8718421e-05 -8.7707337e-06  4.3969753e-06  7.5417181      7.5417105      10.6656        606.63218    
       101   0             -199.0383       51033.188      51031.793      51034.741      51033.029     -8.1846209e-06 -2.4721629e-06 -9.8165964e-07  7.5417181      7.5417105      10.6656        606.63218    
       102   0             -199.0383       51033.188      51031.793      51034.741      51033.029     -3.3502082e-06  2.3569247e-07  5.7681308e-07  7.5417181      7.5417105      10.6656        606.63218    
       103   0             -199.0383       51033.188      51031.793      51034.741      51033.029     -1.9155344e-06 -1.2813503e-07 -3.4621635e-08  7.5417181      7.5417105      10.6656        606.63218    
       104   0             -199.0383       51033.188      51031.793      51034.741      51033.029     -7.1846242e-07 -6.8242581e-08 -1.8036063e-08  7.5417181      7.5417105      10.6656        606.63218    
       105   0             -199.0383       51033.188      51031.793      51034.741      51033.029     -1.6730416e-07 -4.9312083e-08 -7.4579674e-09  7.5417181      7.5417105      10.6656        606.63218    
       106   0             -199.0383       51033.188      51031.793      51034.741      51033.029     -1.3369047e-09 -7.4922009e-09  6.1803666e-09  7.5417181      7.5417105      10.6656        606.63218    
       107   0             -199.0383       51033.188      51031.793      51034.741      51033.029      1.9207811e-10 -4.7791366e-10  2.8222526e-12  7.5417181      7.5417105      10.6656        606.63218    
       108   0             -199.0383       51033.188      51031.793      51034.741      51033.029     -5.0913986e-09  3.7066806e-10  1.6893198e-10  7.5417181      7.5417105      10.6656        606.63218    
       109   0             -199.0383       51033.188      51031.793      51034.741      51033.029     -3.1952114e-09  2.3212111e-10  6.6506199e-10  7.5417181      7.5417105      10.6656        606.63218    
       110   0             -199.0383       51033.188      51031.793      51034.741      51033.029     -3.1130912e-10 -3.5432098e-10  1.1640876e-10  7.5417181      7.5417105      10.6656        606.63218    
       111   0             -199.0383       51033.188      51031.793      51034.741      51033.029     -4.8802978e-11 -9.9768461e-11  4.2150526e-12  7.5417181      7.5417105      10.6656        606.63218    
       112   0             -199.0383       51033.188      51031.793      51034.741      51033.029      4.9334441e-11 -2.5033747e-11 -1.8216358e-11  7.5417181      7.5417105      10.6656        606.63218    
       113   0             -199.0383       51033.188      51031.793      51034.741      51033.029      8.212022e-11   5.9707136e-11 -2.1808315e-11  7.5417181      7.5417105      10.6656        606.63218    
       114   0             -199.0383       51033.188      51031.793      51034.741      51033.029     -6.1796336e-11  2.1808315e-11 -5.4868989e-11  7.5417181      7.5417105      10.6656        606.63218    
       115   0             -199.0383       51033.188      51031.793      51034.741      51033.029     -4.7721726e-11  2.2761284e-11 -3.0348378e-11  7.5417181      7.5417105      10.6656        606.63218    
       116   0             -199.0383       51033.188      51031.793      51034.741      51033.029     -9.7404367e-11 -4.8857957e-11  9.6579683e-11  7.5417181      7.5417105      10.6656        606.63218    
       117   0             -199.0383       51033.188      51031.793      51034.741      51033.029      9.6213156e-11 -1.755661e-11  -1.5100884e-11  7.5417181      7.5417105      10.6656        606.63218    
       118   0             -199.0383       51033.188      51031.793      51034.741      51033.029      1.9609158e-12  1.7226737e-12  8.3604651e-11  7.5417181      7.5417105      10.6656        606.63218    
       119   0             -199.0383       51033.188      51031.793      51034.741      51033.029      7.7831862e-11 -1.2975031e-11  6.5938083e-11  7.5417181      7.5417105      10.6656        606.63218    
       120   0             -199.0383       51033.188      51031.793      51034.741      51033.029      8.7599788e-12 -6.5241683e-12 -5.1313683e-11  7.5417181      7.5417105      10.6656        606.63218    
       121   0             -199.0383       51033.188      51031.793      51034.741      51033.029      2.85524e-11    2.1991579e-11 -2.2907894e-11  7.5417181      7.5417105      10.6656        606.63218    
       122   0             -199.0383       51033.188      51031.793      51034.741      51033.029     -1.2975031e-11 -8.7966314e-12  4.2920231e-11  7.5417181      7.5417105      10.6656        606.63218    
Loop time of 0.00173076 on 1 procs for 22 steps with 54 atoms

87.2% CPU use with 1 MPI tasks x 1 OpenMP threads

Minimization stats:
  Stopping criterion = force tolerance
  Energy initial, next-to-last, final = 
     -199.038302074553  -199.038302101915  -199.038302101915
  Force two-norm initial, final = 0.00096838815 1.0015587e-11
  Force max component initial, final = 0.0001990332 2.5921765e-12
  Final line search alpha, max atom move = 1 2.5921765e-12
  Iterations, force evaluations = 22 44

MPI task timing breakdown:
Section |  min time  |  avg time  |  max time  |%varavg| %total
---------------------------------------------------------------
Pair    | 0.0015281  | 0.0015281  | 0.0015281  |   0.0 | 88.29
Neigh   | 0          | 0          | 0          |   0.0 |  0.00
Comm    | 6.6366e-05 | 6.6366e-05 | 6.6366e-05 |   0.0 |  3.83
Output  | 9.5521e-05 | 9.5521e-05 | 9.5521e-05 |   0.0 |  5.52
Modify  | 0          | 0          | 0          |   0.0 |  0.00
Other   |            | 4.078e-05  |            |       |  2.36

Nlocal:             54 ave          54 max          54 min
Histogram: 1 0 0 0 0 0 0 0 0 0
Nghost:            897 ave         897 max         897 min
Histogram: 1 0 0 0 0 0 0 0 0 0
Neighs:           2322 ave        2322 max        2322 min
Histogram: 1 0 0 0 0 0 0 0 0 0

Total # of neighbors = 2322
Ave neighs/atom = 43
Neighbor list builds = 0
Dangerous builds = 0

# Obtain new stress tensor

variable tmp equal pxx
variable pxx1 equal ${tmp}
variable pxx1 equal 51031.7926617718
variable tmp equal pyy
variable pyy1 equal ${tmp}
variable pyy1 equal 51034.7409889931
variable tmp equal pzz
variable pzz1 equal ${tmp}
variable pzz1 equal 51033.0290799129
variable tmp equal pxy
variable pxy1 equal ${tmp}
variable pxy1 equal -1.29750313624709e-11
variable tmp equal pxz
variable pxz1 equal ${tmp}
variable pxz1 equal -8.79663143218366e-12
variable tmp equal pyz
variable pyz1 equal ${tmp}
variable pyz1 equal 4.29202308628628e-11

# Compute elastic constant from pressure tensor

variable C1neg equal ${d1}
variable C1neg equal 72.6636099199822
variable C2neg equal ${d2}
variable C2neg equal 367.496332059818
variable C3neg equal ${d3}
variable C3neg equal 196.305423520243
variable C4neg equal ${d4}
variable C4neg equal 1.8033119323113e-09
variable C5neg equal ${d5}
variable C5neg equal -2.26146594888637e-09
variable C6neg equal ${d6}
variable C6neg equal 4.07943244973421e-09

# Reset box and simulation parameters

clear
OMP_NUM_THREADS environment is not set. Defaulting to 1 thread. (src/comm.cpp:98)
  using 1 OpenMP thread(s) per MPI task
box tilt large

The 'box' command has been removed and will be ignored

read_restart restart.equil
Reading restart file ...
  restart file = 28 Mar 2023, LAMMPS = 28 Mar 2023
  restoring atom style atomic from restart
  triclinic box = (-0.037335238 -0.037335238 -0.0528) to (7.5043828 7.5043828 10.6128) with tilt (0 0 0)
  1 by 1 by 1 MPI processor grid
  pair style eam/alloy stores no restart info
  54 atoms
  read_restart CPU = 0.000 seconds
include potential.mod
# Choose potential
pair_style	eam/alloy
pair_coeff	* * NiFeCr.eam.alloy Cr

# Setup neighbor style
neighbor 1.0 nsq
neigh_modify once no every 1 delay 0 check yes

# Setup minimization style
min_style            cg
min_modify           dmax ${dmax} line quadratic
min_modify           dmax 0.01 line quadratic

# Setup output
thermo          1
thermo_style custom step temp pe press pxx pyy pzz pxy pxz pyz lx ly lz vol
thermo_modify norm no

# Positive deformation

variable delta equal ${up}*${len0}
variable delta equal 1e-06*${len0}
variable delta equal 1e-06*7.54171808542327
variable deltaxy equal ${up}*xy
variable deltaxy equal 1e-06*xy
variable deltaxz equal ${up}*xz
variable deltaxz equal 1e-06*xz
variable deltayz equal ${up}*yz
variable deltayz equal 1e-06*yz
if "${dir} == 1" then    "change_box all x delta 0 ${delta} xy delta ${deltaxy} xz delta ${deltaxz} remap units box"
if "${dir} == 2" then    "change_box all y delta 0 ${delta} yz delta ${deltayz} remap units box"
change_box all y delta 0 ${delta} yz delta ${deltayz} remap units box
change_box all y delta 0 7.54171808542327e-06 yz delta ${deltayz} remap units box
change_box all y delta 0 7.54171808542327e-06 yz delta 0 remap units box
Changing box ...
  triclinic box = (-0.037335238 -0.037335238 -0.0528) to (7.5043828 7.5043904 10.6128) with tilt (0 0 0)
  triclinic box = (-0.037335238 -0.037335238 -0.0528) to (7.5043828 7.5043904 10.6128) with tilt (0 0 0)
if "${dir} == 3" then    "change_box all z delta 0 ${delta} remap units box"
if "${dir} == 4" then    "change_box all yz delta ${delta} remap units box"
if "${dir} == 5" then    "change_box all xz delta ${delta} remap units box"
if "${dir} == 6" then    "change_box all xy delta ${delta} remap units box"

# Relax atoms positions

minimize ${etol} ${ftol} ${maxiter} ${maxeval}
minimize 0 ${ftol} ${maxiter} ${maxeval}
minimize 0 1e-10 ${maxiter} ${maxeval}
minimize 0 1e-10 100 ${maxeval}
minimize 0 1e-10 100 1000
Neighbor list info ...
  update: every = 1 steps, delay = 0 steps, check = yes
  max neighbors/atom: 2000, page size: 100000
  master list distance cutoff = 6.6
  ghost atom cutoff = 6.6
  1 neighbor lists, perpetual/occasional/extra = 1 0 0
  (1) pair eam/alloy, perpetual
      attributes: half, newton on
      pair build: half/nsq/newton
      stencil: none
      bin: none
Per MPI rank memory allocation (min/avg/max) = 4.45 | 4.45 | 4.45 Mbytes
   Step          Temp          PotEng         Press           Pxx            Pyy            Pzz            Pxy            Pxz            Pyz             Lx             Ly             Lz           Volume    
       100   0             -199.03834      51028.944      51030.339      51027.391      51029.103     -1.8718361e-05 -8.7706169e-06  4.3969191e-06  7.5417181      7.5417256      10.6656        606.6334     
       101   0             -199.03834      51028.944      51030.339      51027.391      51029.103     -8.1845731e-06 -2.4721247e-06 -9.81677e-07    7.5417181      7.5417256      10.6656        606.6334     
       102   0             -199.03834      51028.944      51030.339      51027.391      51029.103     -3.3501982e-06  2.3562496e-07  5.7684759e-07  7.5417181      7.5417256      10.6656        606.6334     
       103   0             -199.03834      51028.944      51030.339      51027.391      51029.103     -1.9155396e-06 -1.281192e-07  -3.4559513e-08  7.5417181      7.5417256      10.6656        606.6334     
       104   0             -199.03834      51028.944      51030.339      51027.391      51029.103     -7.1853406e-07 -6.826242e-08  -1.8076198e-08  7.5417181      7.5417256      10.6656        606.6334     
       105   0             -199.03834      51028.944      51030.339      51027.391      51029.103     -1.6724018e-07 -4.9286584e-08 -7.504318e-09   7.5417181      7.5417256      10.6656        606.6334     
       106   0             -199.03834      51028.944      51030.339      51027.391      51029.103     -1.3120333e-09 -7.5013125e-09  6.0907388e-09  7.5417181      7.5417256      10.6656        606.6334     
       107   0             -199.03834      51028.944      51030.339      51027.391      51029.103      1.8018397e-10 -6.0674644e-10  1.4221192e-11  7.5417181      7.5417256      10.6656        606.6334     
       108   0             -199.03834      51028.944      51030.339      51027.391      51029.103     -5.2508637e-09  3.4614675e-10  2.4597531e-10  7.5417181      7.5417256      10.6656        606.6334     
       109   0             -199.03834      51028.944      51030.339      51027.391      51029.103     -3.3168182e-09  2.5030032e-10  6.1862187e-10  7.5417181      7.5417256      10.6656        606.6334     
       110   0             -199.03834      51028.944      51030.339      51027.391      51029.103     -3.1167502e-10 -3.2727069e-10  3.339048e-11   7.5417181      7.5417256      10.6656        606.6334     
       111   0             -199.03834      51028.944      51030.339      51027.391      51029.103     -7.9517724e-11 -8.0122491e-11  8.5033934e-12  7.5417181      7.5417256      10.6656        606.6334     
       112   0             -199.03834      51028.944      51030.339      51027.391      51029.103     -1.7923101e-11 -5.072714e-11   6.7074181e-12  7.5417181      7.5417256      10.6656        606.6334     
       113   0             -199.03834      51028.944      51030.339      51027.391      51029.103     -5.8075978e-11 -2.4703824e-11 -2.0305517e-11  7.5417181      7.5417256      10.6656        606.6334     
       114   0             -199.03834      51028.944      51030.339      51027.391      51029.103     -1.0260884e-10  6.1429687e-11  1.2095344e-11  7.5417181      7.5417256      10.6656        606.6334     
       115   0             -199.03834      51028.944      51030.339      51027.391      51029.103     -7.3854904e-11 -2.723285e-11   4.0867602e-11  7.5417181      7.5417256      10.6656        606.6334     
       116   0             -199.03834      51028.944      51030.339      51027.391      51029.103      3.5589633e-11  4.4679468e-11 -4.0244508e-11  7.5417181      7.5417256      10.6656        606.6334     
       117   0             -199.03834      51028.944      51030.339      51027.391      51029.103     -1.8326279e-13  2.0965263e-11 -1.2278607e-11  7.5417181      7.5417256      10.6656        606.6334     
       118   0             -199.03834      51028.944      51030.339      51027.391      51029.103      7.1875666e-11 -6.2309348e-12  1.57606e-11    7.5417181      7.5417256      10.6656        606.6334     
       119   0             -199.03834      51028.944      51030.339      51027.391      51029.103      8.3201306e-12 -4.9517605e-11 -6.5534773e-11  7.5417181      7.5417256      10.6656        606.6334     
       120   0             -199.03834      51028.944      51030.339      51027.391      51029.103      2.1771619e-11 -3.8338575e-11  3.826527e-11   7.5417181      7.5417256      10.6656        606.6334     
       121   0             -199.03834      51028.944      51030.339      51027.391      51029.103     -2.6774693e-11  2.221145e-11   3.3793658e-11  7.5417181      7.5417256      10.6656        606.6334     
       122   0             -199.03834      51028.944      51030.339      51027.391      51029.103     -8.0452364e-12  2.2174797e-11  1.7226702e-11  7.5417181      7.5417256      10.6656        606.6334     
Loop time of 0.00189459 on 1 procs for 22 steps with 54 atoms

100.0% CPU use with 1 MPI tasks x 1 OpenMP threads

Minimization stats:
  Stopping criterion = force tolerance
  Energy initial, next-to-last, final = 
     -199.038340718382  -199.038340745744  -199.038340745744
  Force two-norm initial, final = 0.00096838642 1.003195e-11
  Force max component initial, final = 0.00019903258 2.5859037e-12
  Final line search alpha, max atom move = 1 2.5859037e-12
  Iterations, force evaluations = 22 44

MPI task timing breakdown:
Section |  min time  |  avg time  |  max time  |%varavg| %total
---------------------------------------------------------------
Pair    | 0.0016736  | 0.0016736  | 0.0016736  |   0.0 | 88.34
Neigh   | 0          | 0          | 0          |   0.0 |  0.00
Comm    | 7.5752e-05 | 7.5752e-05 | 7.5752e-05 |   0.0 |  4.00
Output  | 9.3975e-05 | 9.3975e-05 | 9.3975e-05 |   0.0 |  4.96
Modify  | 0          | 0          | 0          |   0.0 |  0.00
Other   |            | 5.126e-05  |            |       |  2.71

Nlocal:             54 ave          54 max          54 min
Histogram: 1 0 0 0 0 0 0 0 0 0
Nghost:            897 ave         897 max         897 min
Histogram: 1 0 0 0 0 0 0 0 0 0
Neighs:           2322 ave        2322 max        2322 min
Histogram: 1 0 0 0 0 0 0 0 0 0

Total # of neighbors = 2322
Ave neighs/atom = 43
Neighbor list builds = 0
Dangerous builds = 0

# Obtain new stress tensor

variable tmp equal pe
variable e1 equal ${tmp}
variable e1 equal -199.038340745744
variable tmp equal press
variable p1 equal ${tmp}
variable p1 equal 51028.9444778489
variable tmp equal pxx
variable pxx1 equal ${tmp}
variable pxx1 equal 51030.3393889419
variable tmp equal pyy
variable pyy1 equal ${tmp}
variable pyy1 equal 51027.3910645012
variable tmp equal pzz
variable pzz1 equal ${tmp}
variable pzz1 equal 51029.1029801035
variable tmp equal pxy
variable pxy1 equal ${tmp}
variable pxy1 equal -8.0452364068624e-12
variable tmp equal pxz
variable pxz1 equal ${tmp}
variable pxz1 equal 2.21747973856572e-11
variable tmp equal pyz
variable pyz1 equal ${tmp}
variable pyz1 equal 1.72267021012543e-11

# Compute elastic constant from pressure tensor

variable C1pos equal ${d1}
variable C1pos equal 72.6636730694736
variable C2pos equal ${d2}
variable C2pos equal 367.496117130213
variable C3pos equal ${d3}
variable C3pos equal 196.304557420081
variable C4pos equal ${d4}
variable C4pos equal 7.6604094384955e-10
variable C5pos equal ${d5}
variable C5pos equal -8.3567693289772e-10
variable C6pos equal ${d6}
variable C6pos equal -4.57241194529506e-09

# Combine positive and negative

variable C1${dir} equal 0.5*(${C1neg}+${C1pos})
variable C12 equal 0.5*(${C1neg}+${C1pos})
variable C12 equal 0.5*(72.6636099199822+${C1pos})
variable C12 equal 0.5*(72.6636099199822+72.6636730694736)
variable C2${dir} equal 0.5*(${C2neg}+${C2pos})
variable C22 equal 0.5*(${C2neg}+${C2pos})
variable C22 equal 0.5*(367.496332059818+${C2pos})
variable C22 equal 0.5*(367.496332059818+367.496117130213)
variable C3${dir} equal 0.5*(${C3neg}+${C3pos})
variable C32 equal 0.5*(${C3neg}+${C3pos})
variable C32 equal 0.5*(196.305423520243+${C3pos})
variable C32 equal 0.5*(196.305423520243+196.304557420081)
variable C4${dir} equal 0.5*(${C4neg}+${C4pos})
variable C42 equal 0.5*(${C4neg}+${C4pos})
variable C42 equal 0.5*(1.8033119323113e-09+${C4pos})
variable C42 equal 0.5*(1.8033119323113e-09+7.6604094384955e-10)
variable C5${dir} equal 0.5*(${C5neg}+${C5pos})
variable C52 equal 0.5*(${C5neg}+${C5pos})
variable C52 equal 0.5*(-2.26146594888637e-09+${C5pos})
variable C52 equal 0.5*(-2.26146594888637e-09+-8.3567693289772e-10)
variable C6${dir} equal 0.5*(${C6neg}+${C6pos})
variable C62 equal 0.5*(${C6neg}+${C6pos})
variable C62 equal 0.5*(4.07943244973421e-09+${C6pos})
variable C62 equal 0.5*(4.07943244973421e-09+-4.57241194529506e-09)

# Delete dir to make sure it is not reused

variable dir delete

# uzz Perturbation

variable dir equal 3
include displace.mod
# NOTE: This script should not need to be
# modified. See in.elastic for more info.
#
# Find which reference length to use

if "${dir} == 1" then    "variable len0 equal ${lx0}"
if "${dir} == 2" then    "variable len0 equal ${ly0}"
if "${dir} == 3" then    "variable len0 equal ${lz0}"
variable len0 equal ${lz0}
variable len0 equal 10.6655999999999
if "${dir} == 4" then    "variable len0 equal ${lz0}"
if "${dir} == 5" then    "variable len0 equal ${lz0}"
if "${dir} == 6" then    "variable len0 equal ${ly0}"

# Reset box and simulation parameters

clear
OMP_NUM_THREADS environment is not set. Defaulting to 1 thread. (src/comm.cpp:98)
  using 1 OpenMP thread(s) per MPI task
box tilt large

The 'box' command has been removed and will be ignored

read_restart restart.equil
Reading restart file ...
  restart file = 28 Mar 2023, LAMMPS = 28 Mar 2023
  restoring atom style atomic from restart
  triclinic box = (-0.037335238 -0.037335238 -0.0528) to (7.5043828 7.5043828 10.6128) with tilt (0 0 0)
  1 by 1 by 1 MPI processor grid
  pair style eam/alloy stores no restart info
  54 atoms
  read_restart CPU = 0.000 seconds
include potential.mod
# Choose potential
pair_style	eam/alloy
pair_coeff	* * NiFeCr.eam.alloy Cr

# Setup neighbor style
neighbor 1.0 nsq
neigh_modify once no every 1 delay 0 check yes

# Setup minimization style
min_style            cg
min_modify           dmax ${dmax} line quadratic
min_modify           dmax 0.01 line quadratic

# Setup output
thermo          1
thermo_style custom step temp pe press pxx pyy pzz pxy pxz pyz lx ly lz vol
thermo_modify norm no

# Negative deformation

variable delta equal -${up}*${len0}
variable delta equal -1e-06*${len0}
variable delta equal -1e-06*10.6655999999999
variable deltaxy equal -${up}*xy
variable deltaxy equal -1e-06*xy
variable deltaxz equal -${up}*xz
variable deltaxz equal -1e-06*xz
variable deltayz equal -${up}*yz
variable deltayz equal -1e-06*yz
if "${dir} == 1" then    "change_box all x delta 0 ${delta} xy delta ${deltaxy} xz delta ${deltaxz} remap units box"
if "${dir} == 2" then    "change_box all y delta 0 ${delta} yz delta ${deltayz} remap units box"
if "${dir} == 3" then    "change_box all z delta 0 ${delta} remap units box"
change_box all z delta 0 ${delta} remap units box
change_box all z delta 0 -1.06655999999999e-05 remap units box
Changing box ...
  triclinic box = (-0.037335238 -0.037335238 -0.0528) to (7.5043828 7.5043828 10.612789) with tilt (0 0 0)
if "${dir} == 4" then    "change_box all yz delta ${delta} remap units box"
if "${dir} == 5" then    "change_box all xz delta ${delta} remap units box"
if "${dir} == 6" then    "change_box all xy delta ${delta} remap units box"

# Relax atoms positions

minimize ${etol} ${ftol} ${maxiter} ${maxeval}
minimize 0 ${ftol} ${maxiter} ${maxeval}
minimize 0 1e-10 ${maxiter} ${maxeval}
minimize 0 1e-10 100 ${maxeval}
minimize 0 1e-10 100 1000
Neighbor list info ...
  update: every = 1 steps, delay = 0 steps, check = yes
  max neighbors/atom: 2000, page size: 100000
  master list distance cutoff = 6.6
  ghost atom cutoff = 6.6
  1 neighbor lists, perpetual/occasional/extra = 1 0 0
  (1) pair eam/alloy, perpetual
      attributes: half, newton on
      pair build: half/nsq/newton
      stencil: none
      bin: none
Per MPI rank memory allocation (min/avg/max) = 4.45 | 4.45 | 4.45 Mbytes
   Step          Temp          PotEng         Press           Pxx            Pyy            Pzz            Pxy            Pxz            Pyz             Lx             Ly             Lz           Volume    
       100   0             -199.0383       51033.188      51033.029      51033.029      51033.505     -1.8718392e-05 -8.7706941e-06  4.3969882e-06  7.5417181      7.5417181      10.665589      606.63218    
       101   0             -199.0383       51033.188      51033.029      51033.029      51033.505     -8.1846419e-06 -2.4721587e-06 -9.8171063e-07  7.5417181      7.5417181      10.665589      606.63218    
       102   0             -199.0383       51033.188      51033.029      51033.029      51033.505     -3.3501742e-06  2.3574943e-07  5.7682034e-07  7.5417181      7.5417181      10.665589      606.63218    
       103   0             -199.0383       51033.188      51033.029      51033.029      51033.505     -1.9154308e-06 -1.280703e-07  -3.4550493e-08  7.5417181      7.5417181      10.665589      606.63218    
       104   0             -199.0383       51033.188      51033.029      51033.029      51033.505     -7.1849782e-07 -6.8242691e-08 -1.8003552e-08  7.5417181      7.5417181      10.665589      606.63218    
       105   0             -199.0383       51033.188      51033.029      51033.029      51033.505     -1.6731807e-07 -4.931113e-08  -7.4214247e-09  7.5417181      7.5417181      10.665589      606.63218    
       106   0             -199.0383       51033.188      51033.029      51033.029      51033.505     -1.3470575e-09 -7.4556216e-09  6.1410017e-09  7.5417181      7.5417181      10.665589      606.63218    
       107   0             -199.0383       51033.188      51033.029      51033.029      51033.505      1.8683679e-10 -6.1565424e-10 -1.0882166e-10  7.5417181      7.5417181      10.665589      606.63218    
       108   0             -199.0383       51033.188      51033.029      51033.029      51033.505     -5.2373861e-09  4.0361877e-10  1.6251777e-10  7.5417181      7.5417181      10.665589      606.63218    
       109   0             -199.0383       51033.188      51033.029      51033.029      51033.505     -3.2509967e-09  2.0738059e-10  6.7576456e-10  7.5417181      7.5417181      10.665589      606.63218    
       110   0             -199.0383       51033.188      51033.029      51033.029      51033.505     -4.2705813e-10 -2.9311109e-10  5.5272167e-11  7.5417181      7.5417181      10.665589      606.63218    
       111   0             -199.0383       51033.188      51033.029      51033.029      51033.505     -1.1954256e-10 -9.0018862e-11  3.7495641e-11  7.5417181      7.5417181      10.665589      606.63218    
       112   0             -199.0383       51033.188      51033.029      51033.029      51033.505      1.2095368e-12  5.2559873e-11  2.8259178e-11  7.5417181      7.5417181      10.665589      606.63218    
[...]

variable C1neg equal ${d1}
variable C1neg equal -0.000211679434869438
variable C2neg equal ${d2}
variable C2neg equal -0.000311509938910603
variable C3neg equal ${d3}
variable C3neg equal -5.08698576595634e-05
variable C4neg equal ${d4}
variable C4neg equal -5.5785248547127e-09
variable C5neg equal ${d5}
variable C5neg equal 4.38731553948167e-09
variable C6neg equal ${d6}
variable C6neg equal 23.7749425827959

# Reset box and simulation parameters

clear
OMP_NUM_THREADS environment is not set. Defaulting to 1 thread. (src/comm.cpp:98)
  using 1 OpenMP thread(s) per MPI task
box tilt large

The 'box' command has been removed and will be ignored

read_restart restart.equil
Reading restart file ...
  restart file = 28 Mar 2023, LAMMPS = 28 Mar 2023
  restoring atom style atomic from restart
  triclinic box = (-0.037335238 -0.037335238 -0.0528) to (7.5043828 7.5043828 10.6128) with tilt (0 0 0)
  1 by 1 by 1 MPI processor grid
  pair style eam/alloy stores no restart info
  54 atoms
  read_restart CPU = 0.000 seconds
include potential.mod
# Choose potential
pair_style	eam/alloy
pair_coeff	* * NiFeCr.eam.alloy Cr

# Setup neighbor style
neighbor 1.0 nsq
neigh_modify once no every 1 delay 0 check yes

# Setup minimization style
min_style            cg
min_modify           dmax ${dmax} line quadratic
min_modify           dmax 0.01 line quadratic

# Setup output
thermo          1
thermo_style custom step temp pe press pxx pyy pzz pxy pxz pyz lx ly lz vol
thermo_modify norm no

# Positive deformation

variable delta equal ${up}*${len0}
variable delta equal 1e-06*${len0}
variable delta equal 1e-06*7.54171808542327
variable deltaxy equal ${up}*xy
variable deltaxy equal 1e-06*xy
variable deltaxz equal ${up}*xz
variable deltaxz equal 1e-06*xz
variable deltayz equal ${up}*yz
variable deltayz equal 1e-06*yz
if "${dir} == 1" then    "change_box all x delta 0 ${delta} xy delta ${deltaxy} xz delta ${deltaxz} remap units box"
if "${dir} == 2" then    "change_box all y delta 0 ${delta} yz delta ${deltayz} remap units box"
if "${dir} == 3" then    "change_box all z delta 0 ${delta} remap units box"
if "${dir} == 4" then    "change_box all yz delta ${delta} remap units box"
if "${dir} == 5" then    "change_box all xz delta ${delta} remap units box"
if "${dir} == 6" then    "change_box all xy delta ${delta} remap units box"
change_box all xy delta ${delta} remap units box
change_box all xy delta 7.54171808542327e-06 remap units box
Changing box ...
  triclinic box = (-0.037335238 -0.037335238 -0.0528) to (7.5043828 7.5043828 10.6128) with tilt (7.5417181e-06 0 0)

# Relax atoms positions

minimize ${etol} ${ftol} ${maxiter} ${maxeval}
minimize 0 ${ftol} ${maxiter} ${maxeval}
minimize 0 1e-10 ${maxiter} ${maxeval}
minimize 0 1e-10 100 ${maxeval}
minimize 0 1e-10 100 1000
Neighbor list info ...
  update: every = 1 steps, delay = 0 steps, check = yes
  max neighbors/atom: 2000, page size: 100000
  master list distance cutoff = 6.6
  ghost atom cutoff = 6.6
  1 neighbor lists, perpetual/occasional/extra = 1 0 0
  (1) pair eam/alloy, perpetual
      attributes: half, newton on
      pair build: half/nsq/newton
      stencil: none
      bin: none
Per MPI rank memory allocation (min/avg/max) = 4.45 | 4.45 | 4.45 Mbytes
   Step          Temp          PotEng         Press           Pxx            Pyy            Pzz            Pxy            Pxz            Pyz             Lx             Ly             Lz           Volume    
       100   0             -199.03832      51031.066      51031.066      51031.066      51031.066     -0.23776814    -8.7706689e-06  4.3970461e-06  7.5417181      7.5417181      10.6656        606.63279    
       101   0             -199.03832      51031.066      51031.066      51031.066      51031.066     -0.23775761    -2.4721027e-06 -9.8159349e-07  7.5417181      7.5417181      10.6656        606.63279    
       102   0             -199.03832      51031.066      51031.066      51031.066      51031.066     -0.23775278     2.3567545e-07  5.7681892e-07  7.5417181      7.5417181      10.6656        606.63279    
       103   0             -199.03832      51031.066      51031.066      51031.066      51031.066     -0.23775134    -1.2811856e-07 -3.4525571e-08  7.5417181      7.5417181      10.6656        606.63279    
       104   0             -199.03832      51031.066      51031.066      51031.066      51031.066     -0.23775014    -6.8306141e-08 -1.8005514e-08  7.5417181      7.5417181      10.6656        606.63279    
       105   0             -199.03832      51031.066      51031.066      51031.066      51031.066     -0.23774959    -4.9343995e-08 -7.51862e-09    7.5417181      7.5417181      10.6656        606.63279    
       106   0             -199.03832      51031.066      51031.066      51031.066      51031.066     -0.23774943    -7.4636044e-09  6.1024004e-09  7.5417181      7.5417181      10.6656        606.63279    
       107   0             -199.03832      51031.066      51031.066      51031.066      51031.066     -0.23774943    -6.4622189e-10  6.5864712e-11  7.5417181      7.5417181      10.6656        606.63279    
       108   0             -199.03832      51031.066      51031.066      51031.066      51031.066     -0.23774943     2.8790613e-10  1.6365383e-10  7.5417181      7.5417181      10.6656        606.63279    
       109   0             -199.03832      51031.066      51031.066      51031.066      51031.066     -0.23774943     3.0997099e-10  6.3423649e-10  7.5417181      7.5417181      10.6656        606.63279    
       110   0             -199.03832      51031.066      51031.066      51031.066      51031.066     -0.23774943    -3.0659895e-10  3.0494958e-11  7.5417181      7.5417181      10.6656        606.63279    
       111   0             -199.03832      51031.066      51031.066      51031.066      51031.066     -0.23774943    -4.7648373e-11 -1.2205314e-11  7.5417181      7.5417181      10.6656        606.63279    
       112   0             -199.03832      51031.066      51031.066      51031.066      51031.066     -0.23774943    -4.4312987e-11  5.9157287e-11  7.5417181      7.5417181      10.6656        606.63279    
       113   0             -199.03832      51031.066      51031.066      51031.066      51031.066     -0.23774943    -4.3983113e-11 -2.1405115e-11  7.5417181      7.5417181      10.6656        606.63279    
       114   0             -199.03832      51031.066      51031.066      51031.066      51031.066     -0.23774943    -3.1008095e-11  1.4844301e-11  7.5417181      7.5417181      10.6656        606.63279    
       115   0             -199.03832      51031.066      51031.066      51031.066      51031.066     -0.23774943     3.1521231e-12  1.1362304e-11  7.5417181      7.5417181      10.6656        606.63279    
       116   0             -199.03832      51031.066      51031.066      51031.066      51031.066     -0.23774943     2.0635411e-11 -3.2657462e-11  7.5417181      7.5417181      10.6656        606.63279    
       117   0             -199.03832      51031.066      51031.066      51031.066      51031.066     -0.23774943    -1.3011671e-11  1.2205314e-11  7.5417181      7.5417181      10.6656        606.63279    
       118   0             -199.03832      51031.066      51031.066      51031.066      51031.066     -0.23774943    -1.8106382e-11 -9.4490388e-11  7.5417181      7.5417181      10.6656        606.63279    
       119   0             -199.03832      51031.066      51031.066      51031.066      51031.066     -0.23774943    -2.6976309e-11  3.2730767e-11  7.5417181      7.5417181      10.6656        606.63279    
       120   0             -199.03832      51031.066      51031.066      51031.066      51031.066     -0.23774943    -3.0055127e-12  6.8906877e-12  7.5417181      7.5417181      10.6656        606.63279    
       121   0             -199.03832      51031.066      51031.066      51031.066      51031.066     -0.23774943    -3.192441e-11  -6.6707722e-12  7.5417181      7.5417181      10.6656        606.63279    
       122   0             -199.03832      51031.066      51031.066      51031.066      51031.066     -0.23774943    -3.2364241e-11 -8.5070671e-11  7.5417181      7.5417181      10.6656        606.63279    
Loop time of 0.0021687 on 1 procs for 22 steps with 54 atoms

100.0% CPU use with 1 MPI tasks x 1 OpenMP threads

Minimization stats:
  Stopping criterion = force tolerance
  Energy initial, next-to-last, final = 
     -199.038321397118   -199.03832142448   -199.03832142448
  Force two-norm initial, final = 0.00096838737 9.9607086e-12
  Force max component initial, final = 0.00019903286 2.5894287e-12
  Final line search alpha, max atom move = 1 2.5894287e-12
  Iterations, force evaluations = 22 44

MPI task timing breakdown:
Section |  min time  |  avg time  |  max time  |%varavg| %total
---------------------------------------------------------------
Pair    | 0.0019086  | 0.0019086  | 0.0019086  |   0.0 | 88.01
Neigh   | 0          | 0          | 0          |   0.0 |  0.00
Comm    | 8.658e-05  | 8.658e-05  | 8.658e-05  |   0.0 |  3.99
Output  | 0.00012039 | 0.00012039 | 0.00012039 |   0.0 |  5.55
Modify  | 0          | 0          | 0          |   0.0 |  0.00
Other   |            | 5.315e-05  |            |       |  2.45

Nlocal:             54 ave          54 max          54 min
Histogram: 1 0 0 0 0 0 0 0 0 0
Nghost:            897 ave         897 max         897 min
Histogram: 1 0 0 0 0 0 0 0 0 0
Neighs:           2322 ave        2322 max        2322 min
Histogram: 1 0 0 0 0 0 0 0 0 0

Total # of neighbors = 2322
Ave neighs/atom = 43
Neighbor list builds = 0
Dangerous builds = 0

# Obtain new stress tensor

variable tmp equal pe
variable e1 equal ${tmp}
variable e1 equal -199.03832142448
variable tmp equal press
variable p1 equal ${tmp}
variable p1 equal 51031.0660237607
variable tmp equal pxx
variable pxx1 equal ${tmp}
variable pxx1 equal 51031.0660235556
variable tmp equal pyy
variable pyy1 equal ${tmp}
variable pyy1 equal 51031.0660225574
variable tmp equal pzz
variable pzz1 equal ${tmp}
variable pzz1 equal 51031.066025169
variable tmp equal pxy
variable pxy1 equal ${tmp}
variable pxy1 equal -0.237749425863806
variable tmp equal pxz
variable pxz1 equal ${tmp}
variable pxz1 equal -3.23642407799692e-11
variable tmp equal pyz
variable pyz1 equal ${tmp}
variable pyz1 equal -8.5070671404653e-11

# Compute elastic constant from pressure tensor

variable C1pos equal ${d1}
variable C1pos equal 0.000211699807550758
variable C2pos equal ${d2}
variable C2pos equal 0.000311509938910603
variable C3pos equal ${d3}
variable C3pos equal 5.08698576595634e-05
variable C4pos equal ${d4}
variable C4pos equal 1.09957782944403e-08
variable C5pos equal ${d5}
variable C5pos equal 4.61822688366492e-09
variable C6pos equal ${d6}
variable C6pos equal 23.7749425810037

# Combine positive and negative

variable C1${dir} equal 0.5*(${C1neg}+${C1pos})
variable C16 equal 0.5*(${C1neg}+${C1pos})
variable C16 equal 0.5*(-0.000211679434869438+${C1pos})
variable C16 equal 0.5*(-0.000211679434869438+0.000211699807550758)
variable C2${dir} equal 0.5*(${C2neg}+${C2pos})
variable C26 equal 0.5*(${C2neg}+${C2pos})
variable C26 equal 0.5*(-0.000311509938910603+${C2pos})
variable C26 equal 0.5*(-0.000311509938910603+0.000311509938910603)
variable C3${dir} equal 0.5*(${C3neg}+${C3pos})
variable C36 equal 0.5*(${C3neg}+${C3pos})
variable C36 equal 0.5*(-5.08698576595634e-05+${C3pos})
variable C36 equal 0.5*(-5.08698576595634e-05+5.08698576595634e-05)
variable C4${dir} equal 0.5*(${C4neg}+${C4pos})
variable C46 equal 0.5*(${C4neg}+${C4pos})
variable C46 equal 0.5*(-5.5785248547127e-09+${C4pos})
variable C46 equal 0.5*(-5.5785248547127e-09+1.09957782944403e-08)
variable C5${dir} equal 0.5*(${C5neg}+${C5pos})
variable C56 equal 0.5*(${C5neg}+${C5pos})
variable C56 equal 0.5*(4.38731553948167e-09+${C5pos})
variable C56 equal 0.5*(4.38731553948167e-09+4.61822688366492e-09)
variable C6${dir} equal 0.5*(${C6neg}+${C6pos})
variable C66 equal 0.5*(${C6neg}+${C6pos})
variable C66 equal 0.5*(23.7749425827959+${C6pos})
variable C66 equal 0.5*(23.7749425827959+23.7749425810037)

# Delete dir to make sure it is not reused

variable dir delete

# Output final values

variable C11all equal ${C11}
variable C11all equal 367.496224595016
variable C22all equal ${C22}
variable C22all equal 367.496224595016
variable C33all equal ${C33}
variable C33all equal 243.854875595207

variable C12all equal 0.5*(${C12}+${C21})
variable C12all equal 0.5*(72.6636414947279+${C21})
variable C12all equal 0.5*(72.6636414947279+72.6636414750828)
variable C13all equal 0.5*(${C13}+${C31})
variable C13all equal 0.5*(196.30499044506+${C31})
variable C13all equal 0.5*(196.30499044506+196.304990459975)
variable C23all equal 0.5*(${C23}+${C32})
variable C23all equal 0.5*(196.304990439967+${C32})
variable C23all equal 0.5*(196.304990439967+196.304990470162)

variable C44all equal ${C44}
variable C44all equal 147.416291553488
variable C55all equal ${C55}
variable C55all equal 147.416291553714
variable C66all equal ${C66}
variable C66all equal 23.7749425818998

variable C14all equal 0.5*(${C14}+${C41})
variable C14all equal 0.5*(0+${C41})
variable C14all equal 0.5*(0+2.02871976666972e-09)
variable C15all equal 0.5*(${C15}+${C51})
variable C15all equal 0.5*(9.82254277899855e-09+${C51})
variable C15all equal 0.5*(9.82254277899855e-09+7.51332569300498e-11)
variable C16all equal 0.5*(${C16}+${C61})
variable C16all equal 0.5*(1.01863406599923e-08+${C61})
variable C16all equal 0.5*(1.01863406599923e-08+4.82164930075108e-09)

variable C24all equal 0.5*(${C24}+${C42})
variable C24all equal 0.5*(0+${C42})
variable C24all equal 0.5*(0+1.28467643808043e-09)
variable C25all equal 0.5*(${C25}+${C52})
variable C25all equal 0.5*(9.82254277915101e-09+${C52})
variable C25all equal 0.5*(9.82254277915101e-09+-1.54857144089204e-09)
variable C26all equal 0.5*(${C26}+${C62})
variable C26all equal 0.5*(0+${C62})
variable C26all equal 0.5*(0+-2.46489747780425e-10)

variable C34all equal 0.5*(${C34}+${C43})
variable C34all equal 0.5*(-5.09317032994873e-09+${C43})
variable C34all equal 0.5*(-5.09317032994873e-09+2.25412914410485e-10)
variable C35all equal 0.5*(${C35}+${C53})
variable C35all equal 0.5*(9.82254277915101e-09+${C53})
variable C35all equal 0.5*(9.82254277915101e-09+-4.79415890388014e-09)
variable C36all equal 0.5*(${C36}+${C63})
variable C36all equal 0.5*(0+${C63})
variable C36all equal 0.5*(0+1.93342443440865e-09)

variable C45all equal 0.5*(${C45}+${C54})
variable C45all equal 0.5*(-4.16739997359286e-09+${C54})
variable C45all equal 0.5*(-4.16739997359286e-09+-7.12892959422875e-10)
variable C46all equal 0.5*(${C46}+${C64})
variable C46all equal 0.5*(2.7086267198638e-09+${C64})
variable C46all equal 0.5*(2.7086267198638e-09+1.45419167943973e-09)
variable C56all equal 0.5*(${C56}+${C65})
variable C56all equal 0.5*(4.50277121157329e-09+${C65})
variable C56all equal 0.5*(4.50277121157329e-09+5.57944116957056e-09)

# Average moduli for cubic crystals

variable C11cubic equal (${C11all}+${C22all}+${C33all})/3.0
variable C11cubic equal (367.496224595016+${C22all}+${C33all})/3.0
variable C11cubic equal (367.496224595016+367.496224595016+${C33all})/3.0
variable C11cubic equal (367.496224595016+367.496224595016+243.854875595207)/3.0
variable C12cubic equal (${C12all}+${C13all}+${C23all})/3.0
variable C12cubic equal (72.6636414849054+${C13all}+${C23all})/3.0
variable C12cubic equal (72.6636414849054+196.304990452518+${C23all})/3.0
variable C12cubic equal (72.6636414849054+196.304990452518+196.304990455065)/3.0
variable C44cubic equal (${C44all}+${C55all}+${C66all})/3.0
variable C44cubic equal (147.416291553488+${C55all}+${C66all})/3.0
variable C44cubic equal (147.416291553488+147.416291553714+${C66all})/3.0
variable C44cubic equal (147.416291553488+147.416291553714+23.7749425818998)/3.0

variable bulkmodulus equal (${C11cubic}+2*${C12cubic})/3.0
variable bulkmodulus equal (326.28244159508+2*${C12cubic})/3.0
variable bulkmodulus equal (326.28244159508+2*155.091207464163)/3.0
variable shearmodulus1 equal ${C44cubic}
variable shearmodulus1 equal 106.202508563034
variable shearmodulus2 equal (${C11cubic}-${C12cubic})/2.0
variable shearmodulus2 equal (326.28244159508-${C12cubic})/2.0
variable shearmodulus2 equal (326.28244159508-155.091207464163)/2.0
variable poissonratio equal 1.0/(1.0+${C11cubic}/${C12cubic})
variable poissonratio equal 1.0/(1.0+326.28244159508/${C12cubic})
variable poissonratio equal 1.0/(1.0+326.28244159508/155.091207464163)

# For Stillinger-Weber silicon, the analytical results
# are known to be (E. R. Cowley, 1988):
#               C11 = 151.4 GPa
#               C12 = 76.4 GPa
#               C44 = 56.4 GPa

print "========================================="
=========================================
print "Components of the Elastic Constant Tensor"
Components of the Elastic Constant Tensor
print "========================================="
=========================================

print "Elastic Constant C11all = ${C11all} ${cunits}"
Elastic Constant C11all = 367.496224595016 GPa
print "Elastic Constant C22all = ${C22all} ${cunits}"
Elastic Constant C22all = 367.496224595016 GPa
print "Elastic Constant C33all = ${C33all} ${cunits}"
Elastic Constant C33all = 243.854875595207 GPa

print "Elastic Constant C12all = ${C12all} ${cunits}"
Elastic Constant C12all = 72.6636414849054 GPa
print "Elastic Constant C13all = ${C13all} ${cunits}"
Elastic Constant C13all = 196.304990452518 GPa
print "Elastic Constant C23all = ${C23all} ${cunits}"
Elastic Constant C23all = 196.304990455065 GPa

print "Elastic Constant C44all = ${C44all} ${cunits}"
Elastic Constant C44all = 147.416291553488 GPa
print "Elastic Constant C55all = ${C55all} ${cunits}"
Elastic Constant C55all = 147.416291553714 GPa
print "Elastic Constant C66all = ${C66all} ${cunits}"
Elastic Constant C66all = 23.7749425818998 GPa

print "Elastic Constant C14all = ${C14all} ${cunits}"
Elastic Constant C14all = 1.01435988333486e-09 GPa
print "Elastic Constant C15all = ${C15all} ${cunits}"
Elastic Constant C15all = 4.9488380179643e-09 GPa
print "Elastic Constant C16all = ${C16all} ${cunits}"
Elastic Constant C16all = 7.50399498037169e-09 GPa

print "Elastic Constant C24all = ${C24all} ${cunits}"
Elastic Constant C24all = 6.42338219040215e-10 GPa
print "Elastic Constant C25all = ${C25all} ${cunits}"
Elastic Constant C25all = 4.13698566912949e-09 GPa
print "Elastic Constant C26all = ${C26all} ${cunits}"
Elastic Constant C26all = -1.23244873890212e-10 GPa

print "Elastic Constant C34all = ${C34all} ${cunits}"
Elastic Constant C34all = -2.43387870776912e-09 GPa
print "Elastic Constant C35all = ${C35all} ${cunits}"
Elastic Constant C35all = 2.51419193763544e-09 GPa
print "Elastic Constant C36all = ${C36all} ${cunits}"
Elastic Constant C36all = 9.66712217204325e-10 GPa

print "Elastic Constant C45all = ${C45all} ${cunits}"
Elastic Constant C45all = -2.44014646650787e-09 GPa
print "Elastic Constant C46all = ${C46all} ${cunits}"
Elastic Constant C46all = 2.08140919965177e-09 GPa
print "Elastic Constant C56all = ${C56all} ${cunits}"
Elastic Constant C56all = 5.04110619057192e-09 GPa

print "========================================="
=========================================
print "Average properties for a cubic crystal"
Average properties for a cubic crystal
print "========================================="
=========================================

print "Bulk Modulus = ${bulkmodulus} ${cunits}"
Bulk Modulus = 212.154952174469 GPa
print "Shear Modulus 1 = ${shearmodulus1} ${cunits}"
Shear Modulus 1 = 106.202508563034 GPa
print "Shear Modulus 2 = ${shearmodulus2} ${cunits}"
Shear Modulus 2 = 85.5956170654585 GPa
print "Poisson Ratio = ${poissonratio}"
Poisson Ratio = 0.32218466417358
print "cdvae [${C11all}, ${C12all}, ${C44all}, ${bulkmodulus}, ${shearmodulus1}]"
cdvae [367.496224595016, 72.6636414849054, 147.416291553488, 212.154952174469, 106.202508563034]
Total wall time: 0:00:00
