LAMMPS (28 Mar 2023 - Development)
OMP_NUM_THREADS environment is not set. Defaulting to 1 thread. (src/comm.cpp:98)
  using 1 OpenMP thread(s) per MPI task
include init.mod
# metal units, elastic constants in GPa
units           metal
variable cfac equal 1.0e-4
variable cunits string GPa
variable up equal 1.0e-6
variable atomjiggle equal 1.0e-5


# Define minimization parameters
variable etol equal 0.0
variable ftol equal 1.0e-10
variable maxiter equal 100
variable maxeval equal 1000
variable dmax equal 1.0e-2

boundary        p p p
read_data ../generated7.data
Reading data file ...
  triclinic box = (0 0 0) to (4.9780316 4.9780316 7.04) with tilt (0 0 0)
  1 by 1 by 1 MPI processor grid
  reading atoms ...
  16 atoms
  read_data CPU = 0.000 seconds

# Need to set mass to something, just to satisfy LAMMPS
mass 1 1.0e-20
include potential.mod
# Choose potential
pair_style  eam/alloy
pair_coeff  * * ../../../potentials/NiFeCr.eam.alloy Cr Ni

# Setup neighbor style
neighbor 1.0 nsq
neigh_modify once no every 1 delay 0 check yes

# Setup minimization style
min_style            cg
min_modify           dmax ${dmax} line quadratic
min_modify           dmax 0.01 line quadratic

# Setup output
thermo          1
thermo_style custom step temp pe press pxx pyy pzz pxy pxz pyz lx ly lz vol
thermo_modify norm no

# Compute initial state
fix 3 all box/relax  aniso 0.0
minimize ${etol} ${ftol} ${maxiter} ${maxeval}
minimize 0 ${ftol} ${maxiter} ${maxeval}
minimize 0 1e-10 ${maxiter} ${maxeval}
minimize 0 1e-10 100 ${maxeval}
minimize 0 1e-10 100 1000
Neighbor list info ...
  update: every = 1 steps, delay = 0 steps, check = yes
  max neighbors/atom: 2000, page size: 100000
  master list distance cutoff = 6.6
  ghost atom cutoff = 6.6
  1 neighbor lists, perpetual/occasional/extra = 1 0 0
  (1) pair eam/alloy, perpetual
      attributes: half, newton on
      pair build: half/nsq/newton
      stencil: none
      bin: none
WARNING: Energy due to 3 extra global DOFs will be included in minimizer energies
 (src/min.cpp:225)
Per MPI rank memory allocation (min/avg/max) = 4.455 | 4.455 | 4.455 Mbytes
   Step          Temp          PotEng         Press           Pxx            Pyy            Pzz            Pxy            Pxz            Pyz             Lx             Ly             Lz           Volume    
         0   0             -67.056191      14675.518      18318.659      18545.402      7162.4949      49.683023      543.14868     -126.61431      4.9780316      4.9780316      7.04           174.45682    
         1   0             -67.056704      14339.525      17977.889      18203.356      6837.3296      57.984519      545.39187     -127.12873      4.9785234      4.9785294      7.0402719      174.49824    
         2   0             -67.057208      14005.564      17639.019      17863.201      6514.4725      66.330181      547.62304     -127.65297      4.979015       4.9790272      7.0405363      174.53948    
         3   0             -67.057704      13673.667      17302.088      17524.949      6193.9634      74.691859      549.81642     -128.16266      4.9795066      4.979525       7.0407931      174.58053    
         4   0             -67.058193      13343.861      16967.12       17188.625      5875.8395      83.083596      551.97985     -128.6664       4.979998       4.9800229      7.0410419      174.62139    
         5   0             -67.058674      13016.182      16634.141      16854.25       5560.1559      91.518614      554.10156     -129.1517       4.9804894      4.9805207      7.0412827      174.66205    
         6   0             -67.059147      12690.703      16303.22       16521.909      5246.9822      99.97064       556.20338     -129.64297      4.9809807      4.9810185      7.041515       174.7025     
         7   0             -67.059614      12367.473      15974.404      16191.641      4936.3737      108.43813      558.26399     -130.11934      4.9814719      4.9815163      7.0417386      174.74274    
         8   0             -67.060072      12046.537      15647.725      15863.507      4628.3773      116.92502      560.29521     -130.5936       4.9819631      4.9820141      7.0419534      174.78276    
         9   0             -67.060524      11727.942      15323.237      15537.544      4323.0438      125.43043      562.29194     -131.0616       4.9824541      4.9825119      7.0421589      174.82256    
        10   0             -67.060969      11411.698      15000.952      15213.719      4020.4241      134.00554      564.2603      -131.52954      4.982945       4.9830097      7.0423549      174.86212    
        11   0             -67.061408      11097.894      14680.951      14892.141      3720.5904      142.60634      566.19141     -131.98768      4.9834359      4.9835075      7.042541       174.90144    
        12   0             -67.061839      10786.581      14363.268      14572.869      3423.6051      151.24693      568.09871     -132.45054      4.9839266      4.9840053      7.042717       174.9405     
        13   0             -67.062265      10477.832      14047.985      14255.964      3129.5457      159.90791      569.96491     -132.90184      4.9844173      4.9845031      7.0428826      174.97931    
        14   0             -67.062684      10171.697      13735.143      13941.465      2838.4828      168.60521      571.79633     -133.34989      4.9849078      4.9850009      7.0430373      175.01786    
        15   0             -67.063098      9868.2313      13424.803      13629.431      2550.4591      177.3432       573.59985     -133.80289      4.9853983      4.9854987      7.0431807      175.05612    
        16   0             -67.063506      9567.5215      13117.025      13319.923      2265.6169      186.10929      575.35517     -134.24258      4.9858886      4.9859965      7.0433126      175.0941     
        17   0             -67.063908      9269.626       12811.882      13013.013      1983.9821      194.9179       577.06447     -134.67172      4.9863789      4.9864943      7.0434325      175.13178    
        18   0             -67.064306      8974.6473      12509.47       12708.763      1705.7095      203.76709      578.74272     -135.10652      4.986869       4.9869921      7.0435399      175.16915    
        19   0             -67.064698      8682.6523      12209.839      12407.263      1430.8554      212.64883      580.37972     -135.53847      4.987359       4.9874899      7.0436346      175.2062     
        20   0             -67.065085      8393.6957      11913.013      12108.563      1159.5115      221.54932      581.97551     -135.96608      4.9878489      4.9879877      7.0437159      175.24292    
        21   0             -67.065468      8107.8933      11619.15       11812.745      891.78453      230.46241      583.52801     -136.38948      4.9883387      4.9884855      7.0437834      175.2793     
        22   0             -67.065847      7825.3288      11328.347      11519.862      627.77684      239.38014      585.02988     -136.81412      4.9888283      4.9889833      7.0438366      175.31533    
        23   0             -67.066222      7546.1075      11040.657      11230.064      367.60145      248.35965      586.49041     -137.22834      4.9893179      4.9894811      7.043875       175.35098    
        24   0             -67.066594      7270.2902      10756.12       10943.383      111.36798      257.3815       587.89833     -137.63997      4.9898073      4.9899789      7.0438981      175.38625    
        25   0             -67.066961      6998.0097      10474.904      10659.932     -140.80638      266.40125      589.24947     -138.04916      4.9902966      4.9904767      7.0439053      175.42113    
        26   0             -67.067326      6729.3465      10197.056      10379.782     -388.79826      275.42414      590.53604     -138.46469      4.9907858      4.9909745      7.043896       175.45559    
        27   0             -67.067688      6464.4339      9922.7067      10103.066     -632.47081      284.48473      591.77241     -138.86997      4.9912748      4.9914723      7.0438695      175.48963    
        28   0             -67.068048      6203.3744      9651.946       9829.8698     -871.69244      293.56387      592.94729     -139.27253      4.9917638      4.9919701      7.0438254      175.52322    
        29   0             -67.068406      5946.283       9384.8781      9560.2945     -1106.3235      302.65813      594.0593      -139.67221      4.9922526      4.9924679      7.0437628      175.55636    
        30   0             -67.068762      5693.2851      9121.6143      9294.4588     -1336.2178      311.77116      595.10482     -140.07092      4.9927413      4.9929657      7.0436812      175.58901    
        31   0             -67.069116      5444.5001      8862.2599      9032.4654     -1561.225       320.89238      596.08334     -140.46658      4.9932298      4.9934635      7.0435797      175.62117    
        32   0             -67.06947       5200.0637      8606.9358      8774.4431     -1781.1878      330.02596      596.99249     -140.85887      4.9937183      4.9939613      7.0434577      175.65282    
        33   0             -67.069822      4960.1501      8355.821       8520.5675     -1995.9381      339.19052      597.81867     -141.25894      4.9942066      4.9944591      7.0433144      175.68393    
        34   0             -67.070175      4724.8575      8108.9928      8270.8951     -2205.3154      348.34063      598.57438     -141.65117      4.9946948      4.9949569      7.043149       175.71449    
        35   0             -67.070528      4494.3149      7866.5285      8025.561      -2409.1447      357.51874      599.25238     -142.03962      4.9951829      4.9954548      7.0429608      175.74448    
        36   0             -67.070881      4268.6815      7628.6181      7784.6772     -2607.2508      366.66286      599.85571     -142.4187       4.9956709      4.9959526      7.0427488      175.77387    
        37   0             -67.071235      4048.1299      7395.3814      7548.4547     -2799.4464      375.85912      600.36749     -142.80171      4.9961587      4.9964504      7.0425122      175.80265    
        38   0             -67.071591      3832.8251      7166.9939      7317.0014     -2985.5199      385.03788      600.80094     -143.1873       4.9966464      4.9969482      7.0422503      175.83079    
        39   0             -67.071948      3622.8752      6943.5471      7090.435      -3165.3565      394.20232      601.14887     -143.54943      4.9971341      4.997446       7.041962       175.85827    
        40   0             -67.072308      3418.4738      6725.212       6868.9334     -3338.724       403.37851      601.39916     -143.91403      4.9976216      4.9979438      7.0416466      175.88506    
        41   0             -67.07267       3219.7709      6512.1203      6652.6242     -3505.4319      412.54902      601.555       -144.2754       4.998109       4.9984416      7.0413031      175.91116    
        42   0             -67.073035      3026.9458      6304.4196      6441.6695     -3665.2517      421.72168      601.61533     -144.61604      4.9985963      4.9989394      7.0409307      175.93652    
        43   0             -67.073404      2840.13        6102.2652      6236.1964     -3818.0717      430.89737      601.58363     -144.96152      4.9990836      4.9994372      7.0405285      175.96114    
        44   0             -67.073776      2659.4794      5905.7752      6036.3457     -3963.6825      440.06442      601.44624     -145.30337      4.9995707      4.999935       7.0400957      175.98499    
        45   0             -67.074153      2485.1151      5715.0424      5842.2113     -4101.9083      449.18496      601.19321     -145.65259      5.0000578      5.0004328      7.0396314      176.00805    
        46   0             -67.074535      2317.2177      5530.2226      5653.9923     -4232.5619      458.30595      600.8487      -145.9924       5.0005448      5.0009306      7.0391348      176.0303     
        47   0             -67.074922      2155.9213      5351.4693      5471.7894     -4355.4948      467.42908      600.39464     -146.32801      5.0010317      5.0014284      7.0386053      176.05172    
        48   0             -67.075314      2001.325       5178.8512      5295.6824     -4470.5587      476.52702      599.82489     -146.65539      5.0015186      5.0019262      7.0380422      176.0723     
        49   0             -67.075712      1853.5244      5012.4588      5125.7421     -4577.6276      485.58761      599.14087     -146.97785      5.0020055      5.002424       7.0374449      176.09202    
        50   0             -67.076116      1712.6202      4852.3664      4962.1124     -4676.6184      494.63778      598.34605     -147.29958      5.0024923      5.0029218      7.0368129      176.11086    
        51   0             -67.076526      1578.6731      4698.6495      4804.805      -4767.4352      503.66271      597.43602     -147.61664      5.0029792      5.0034196      7.0361457      176.12883    
        52   0             -67.076942      1451.7624      4551.3511      4653.9274     -4849.9915      512.68783      596.40235     -147.93718      5.003466       5.0039174      7.0354433      176.14591    
        53   0             -67.077346      1337.3595      4416.9304      4516.0656     -4920.9175      521.26783      595.31799     -148.23468      5.0039305      5.0043923      7.0347393      176.16135    
        54   0             -67.077738      1234.052       4293.9529      4389.787      -4981.584       529.43689      594.18258     -148.512        5.0043747      5.0048464      7.0340353      176.17534    
        55   0             -67.07812       1140.4295      4180.964       4273.5896     -5033.265       537.23712      592.99192     -148.77699      5.0048011      5.0052824      7.0333313      176.18806    
        56   0             -67.078493      1055.3575      4076.7822      4166.3338     -5077.0435      544.74249      591.76032     -149.03608      5.005212       5.0057023      7.0326273      176.19967    
        57   0             -67.078858      977.79776      3980.3187      4066.9253     -5113.8508      551.96241      590.49679     -149.28535      5.0056092      5.0061081      7.0319233      176.2103     
        58   0             -67.079216      906.98054      3890.8129      3974.5578     -5144.4291      558.95226      589.19921     -149.52906      5.0059941      5.0065014      7.0312193      176.22005    
        59   0             -67.079568      842.16051      3807.4549      3888.467      -5169.4403      565.76388      587.88623     -149.77056      5.006368       5.0068833      7.0305153      176.22901    
        60   0             -67.079914      782.79205      3729.7232      3808.0501     -5189.3972      572.36292      586.53288     -150.00437      5.0067321      5.0072551      7.0298113      176.23726    
        61   0             -67.080255      728.29468      3657.0158      3732.7316     -5204.8634      578.77943      585.15941     -150.22735      5.0070873      5.0076177      7.0291073      176.24488    
        62   0             -67.080591      678.21637      3588.8584      3662.0219     -5216.2312      585.03003      583.7579      -150.45096      5.0074345      5.0079721      7.0284033      176.25192    
        63   0             -67.080923      632.13455      3524.8196      3595.4699     -5223.8859      591.13508      582.33038     -150.67585      5.0077744      5.0083189      7.0276993      176.25843    
        64   0             -67.081251      589.75753      3464.5718      3532.8177     -5228.1169      597.11733      580.88981     -150.89338      5.0081077      5.0086589      7.0269953      176.26447    
        65   0             -67.081576      550.72244      3407.7256      3473.6472     -5229.2055      603.01161      579.43847     -151.10174      5.008435       5.0089926      7.0262913      176.27007    
        66   0             -67.081897      514.73093      3354.0351      3417.6625     -5227.5048      608.7783       577.95944     -151.31908      5.0087568      5.0093206      7.0255873      176.27528    
        67   0             -67.082215      481.51288      3303.1706      3364.5683     -5223.2003      614.48566      576.46138     -151.53827      5.0090736      5.0096433      7.0248833      176.28012    
        68   0             -67.08253       450.889        3254.9857      3314.1988     -5216.5175      620.07753      574.94513     -151.76062      5.0093858      5.0099613      7.0241793      176.28463    
        69   0             -67.082842      422.61737      3209.205       3266.2757     -5207.6286      625.55844      573.40681     -151.99078      5.0096938      5.0102748      7.0234753      176.28883    
        70   0             -67.083152      396.56143      3165.6846      3220.6569     -5196.6572      630.98733      571.86201     -152.19787      5.0099979      5.0105843      7.0227713      176.29275    
        71   0             -67.08346       372.50828      3124.2262      3177.1365     -5183.8378      636.37191      570.31745     -152.40886      5.0102985      5.0108901      7.0220673      176.29641    
        72   0             -67.083765      350.29352      3084.6618      3135.5491     -5169.3304      641.6961       568.75399     -152.62849      5.0105958      5.0111924      7.0213633      176.29983    
        73   0             -67.084069      329.77284      3046.8205      3095.7523     -5153.2544      646.95726      567.17935     -152.85408      5.0108901      5.0114916      7.0206593      176.30303    
        74   0             -67.08437       310.84449      3010.5779      3057.629      -5135.6734      652.1974       565.59663     -153.07222      5.0111817      5.0117878      7.0199553      176.30603    
        75   0             -67.084669      293.39686      2975.8271      3021.0591     -5116.6955      657.36845      564.00217     -153.28062      5.0114708      5.0120813      7.0192513      176.30885    
        76   0             -67.084967      277.30269      2942.4738      2985.9116     -5096.4773      662.51044      562.40019     -153.49209      5.0117575      5.0123724      7.0185473      176.31149    
        77   0             -67.085263      262.45737      2910.3853      2952.0719     -5075.0851      667.61158      560.78948     -153.70118      5.0120421      5.0126612      7.0178433      176.31397    
        78   0             -67.085558      248.76481      2879.4646      2919.4417     -5052.6119      672.67202      559.16931     -153.90867      5.0123248      5.0129478      7.0171393      176.31631    
        79   0             -67.085851      236.11838      2849.5893      2887.9061     -5029.1402      677.67134      557.54145     -154.1149       5.0126056      5.0132325      7.0164353      176.31851    
        80   0             -67.086142      224.50368      2820.7643      2857.482      -5004.7352      682.68325      555.90599     -154.31559      5.0128848      5.0135154      7.0157313      176.32059    
        81   0             -67.086432      213.8052       2792.8659      2828.0178     -4979.4682      687.66141      554.26443     -154.50924      5.0131625      5.0137967      7.0150273      176.32255    
        82   0             -67.086721      203.95878      2765.8269      2799.4491     -4953.3996      692.61167      552.61699     -154.69795      5.0134387      5.0140764      7.0143233      176.32441    
        83   0             -67.087009      194.90398      2739.5886      2771.7142     -4926.5909      697.54063      550.96189     -154.88346      5.0137137      5.0143547      7.0136193      176.32617    
        84   0             -67.087295      186.57139      2714.089       2744.7234     -4899.0983      702.43697      549.2994      -155.0666       5.0139875      5.0146317      7.0129153      176.32784    
        85   0             -67.08758       178.93383      2689.2885      2718.4835     -4870.9705      707.33307      547.62967     -155.24642      5.0142603      5.0149075      7.0122113      176.32942    
        86   0             -67.087864      171.92397      2665.1198      2692.9085     -4842.2564      712.21183      545.95299     -155.42288      5.0145321      5.0151822      7.0115073      176.33094    
        87   0             -67.088147      165.49421      2641.5337      2667.9472     -4812.9983      717.07254      544.27141     -155.59616      5.014803       5.0154558      7.0108033      176.33238    
        88   0             -67.088429      159.60882      2618.4996      2643.5619     -4783.235       721.92466      542.58504     -155.76844      5.015073       5.0157286      7.0100993      176.33376    
        89   0             -67.088709      154.23653      2595.9746      2619.7057     -4752.9706      726.76533      540.90129     -155.94844      5.0153424      5.0160005      7.0093953      176.33507    
        90   0             -67.088989      149.30953      2573.9037      2596.335      -4722.3101      731.59414      539.204       -156.12047      5.0156111      5.0162716      7.0086913      176.33634    
        91   0             -67.089268      144.81225      2552.2611      2573.4367     -4691.261       736.42069      537.49911     -156.29007      5.0158792      5.016542       7.0079873      176.33756    
        92   0             -67.089546      140.71694      2531.0128      2550.966      -4659.828       741.24047      535.7932      -156.4627       5.0161467      5.0168117      7.0072833      176.33873    
        93   0             -67.089823      136.95784      2510.0706      2528.8435     -4628.0406      746.00778      534.09874     -156.62926      5.0164138      5.0170809      7.0065793      176.33986    
        94   0             -67.090099      133.55834      2489.5141      2507.1061     -4595.9452      750.80422      532.38765     -156.8031       5.0166805      5.0173495      7.0058753      176.34096    
        95   0             -67.090374      130.461        2469.2641      2485.6721     -4563.5531      755.58084      530.67228     -156.98096      5.0169467      5.0176176      7.0051713      176.34202    
        96   0             -67.090648      127.66443      2449.3102      2464.5778     -4530.8948      760.36905      528.95126     -157.16111      5.0172127      5.0178853      7.0044673      176.34305    
        97   0             -67.090922      125.13576      2429.6058      2443.7617     -4497.9602      765.15746      527.21917     -157.34926      5.0174783      5.0181526      7.0037633      176.34406    
        98   0             -67.091194      122.83382      2410.1377      2423.2021     -4464.8383      769.93396      525.49296     -157.52891      5.0177437      5.0184195      7.0030593      176.34504    
        99   0             -67.091466      120.75966      2390.8985      2402.8902     -4431.5098      774.70049      523.7633      -157.70898      5.0180089      5.0186861      7.0023553      176.346      
       100   0             -67.091737      118.8884       2371.8619      2382.8051     -4398.0018      779.46033      522.03277     -157.88757      5.018274       5.0189524      7.0016513      176.34694    
Loop time of 0.00267461 on 1 procs for 100 steps with 16 atoms

100.0% CPU use with 1 MPI tasks x 1 OpenMP threads

Minimization stats:
  Stopping criterion = max iterations
  Energy initial, next-to-last, final = 
     -67.0561911078609    -67.09146605073  -67.0917370535211
  Force two-norm initial, final = 3.2309296 1.1483308
  Force max component initial, final = 2.0193605 0.48672667
  Final line search alpha, max atom move = 0.00020392221 9.9254379e-05
  Iterations, force evaluations = 100 100

MPI task timing breakdown:
Section |  min time  |  avg time  |  max time  |%varavg| %total
---------------------------------------------------------------
Pair    | 0.001641   | 0.001641   | 0.001641   |   0.0 | 61.35
Neigh   | 0          | 0          | 0          |   0.0 |  0.00
Comm    | 0.00010927 | 0.00010927 | 0.00010927 |   0.0 |  4.09
Output  | 0.00049317 | 0.00049317 | 0.00049317 |   0.0 | 18.44
Modify  | 0          | 0          | 0          |   0.0 |  0.00
Other   |            | 0.0004312  |            |       | 16.12

Nlocal:             16 ave          16 max          16 min
Histogram: 1 0 0 0 0 0 0 0 0 0
Nghost:            572 ave         572 max         572 min
Histogram: 1 0 0 0 0 0 0 0 0 0
Neighs:            947 ave         947 max         947 min
Histogram: 1 0 0 0 0 0 0 0 0 0

Total # of neighbors = 947
Ave neighs/atom = 59.1875
Neighbor list builds = 0
Dangerous builds = 0

variable tmp equal pxx
variable pxx0 equal ${tmp}
variable pxx0 equal 2371.86192326845
variable tmp equal pyy
variable pyy0 equal ${tmp}
variable pyy0 equal 2382.80512294976
variable tmp equal pzz
variable pzz0 equal ${tmp}
variable pzz0 equal -4398.0018416404
variable tmp equal pyz
variable pyz0 equal ${tmp}
variable pyz0 equal -157.887572588965
variable tmp equal pxz
variable pxz0 equal ${tmp}
variable pxz0 equal 522.032770041046
variable tmp equal pxy
variable pxy0 equal ${tmp}
variable pxy0 equal 779.460328184911

variable tmp equal lx
variable lx0 equal ${tmp}
variable lx0 equal 5.01827395054772
variable tmp equal ly
variable ly0 equal ${tmp}
variable ly0 equal 5.01895237474462
variable tmp equal lz
variable lz0 equal ${tmp}
variable lz0 equal 7.00165127099438

# These formulas define the derivatives w.r.t. strain components
# Constants uses $, variables use v_
variable d1 equal -(v_pxx1-${pxx0})/(v_delta/v_len0)*${cfac}
variable d1 equal -(v_pxx1-2371.86192326845)/(v_delta/v_len0)*${cfac}
variable d1 equal -(v_pxx1-2371.86192326845)/(v_delta/v_len0)*0.0001
variable d2 equal -(v_pyy1-${pyy0})/(v_delta/v_len0)*${cfac}
variable d2 equal -(v_pyy1-2382.80512294976)/(v_delta/v_len0)*${cfac}
variable d2 equal -(v_pyy1-2382.80512294976)/(v_delta/v_len0)*0.0001
variable d3 equal -(v_pzz1-${pzz0})/(v_delta/v_len0)*${cfac}
variable d3 equal -(v_pzz1--4398.0018416404)/(v_delta/v_len0)*${cfac}
variable d3 equal -(v_pzz1--4398.0018416404)/(v_delta/v_len0)*0.0001
variable d4 equal -(v_pyz1-${pyz0})/(v_delta/v_len0)*${cfac}
variable d4 equal -(v_pyz1--157.887572588965)/(v_delta/v_len0)*${cfac}
variable d4 equal -(v_pyz1--157.887572588965)/(v_delta/v_len0)*0.0001
variable d5 equal -(v_pxz1-${pxz0})/(v_delta/v_len0)*${cfac}
variable d5 equal -(v_pxz1-522.032770041046)/(v_delta/v_len0)*${cfac}
variable d5 equal -(v_pxz1-522.032770041046)/(v_delta/v_len0)*0.0001
variable d6 equal -(v_pxy1-${pxy0})/(v_delta/v_len0)*${cfac}
variable d6 equal -(v_pxy1-779.460328184911)/(v_delta/v_len0)*${cfac}
variable d6 equal -(v_pxy1-779.460328184911)/(v_delta/v_len0)*0.0001

displace_atoms all random ${atomjiggle} ${atomjiggle} ${atomjiggle} 87287 units box
displace_atoms all random 1e-05 ${atomjiggle} ${atomjiggle} 87287 units box
displace_atoms all random 1e-05 1e-05 ${atomjiggle} 87287 units box
displace_atoms all random 1e-05 1e-05 1e-05 87287 units box
Displacing atoms ...

# Write restart
unfix 3
write_restart restart.equil
System init for write_restart ...

# uxx Perturbation

variable dir equal 1
include displace.mod
# NOTE: This script should not need to be
# modified. See in.elastic for more info.
#
# Find which reference length to use

if "${dir} == 1" then    "variable len0 equal ${lx0}"
variable len0 equal ${lx0}
variable len0 equal 5.01827395054772
if "${dir} == 2" then    "variable len0 equal ${ly0}"
if "${dir} == 3" then    "variable len0 equal ${lz0}"
if "${dir} == 4" then    "variable len0 equal ${lz0}"
if "${dir} == 5" then    "variable len0 equal ${lz0}"
if "${dir} == 6" then    "variable len0 equal ${ly0}"

# Reset box and simulation parameters

clear
OMP_NUM_THREADS environment is not set. Defaulting to 1 thread. (src/comm.cpp:98)
  using 1 OpenMP thread(s) per MPI task
box tilt large

The 'box' command has been removed and will be ignored

read_restart restart.equil
Reading restart file ...
  restart file = 28 Mar 2023, LAMMPS = 28 Mar 2023
  restoring atom style atomic from restart
  triclinic box = (-0.020121155 -0.020460367 0.019174345) to (4.9981528 4.998492 7.0208256) with tilt (0 0 0)
  1 by 1 by 1 MPI processor grid
  pair style eam/alloy stores no restart info
  16 atoms
  read_restart CPU = 0.000 seconds
include potential.mod
# Choose potential
pair_style  eam/alloy
pair_coeff  * * ../../../potentials/NiFeCr.eam.alloy Cr Ni

# Setup neighbor style
neighbor 1.0 nsq
neigh_modify once no every 1 delay 0 check yes

# Setup minimization style
min_style            cg
min_modify           dmax ${dmax} line quadratic
min_modify           dmax 0.01 line quadratic

# Setup output
thermo          1
thermo_style custom step temp pe press pxx pyy pzz pxy pxz pyz lx ly lz vol
thermo_modify norm no

# Negative deformation

variable delta equal -${up}*${len0}
variable delta equal -1e-06*${len0}
variable delta equal -1e-06*5.01827395054772
variable deltaxy equal -${up}*xy
variable deltaxy equal -1e-06*xy
variable deltaxz equal -${up}*xz
variable deltaxz equal -1e-06*xz
variable deltayz equal -${up}*yz
variable deltayz equal -1e-06*yz
if "${dir} == 1" then    "change_box all x delta 0 ${delta} xy delta ${deltaxy} xz delta ${deltaxz} remap units box"
change_box all x delta 0 ${delta} xy delta ${deltaxy} xz delta ${deltaxz} remap units box
change_box all x delta 0 -5.01827395054772e-06 xy delta ${deltaxy} xz delta ${deltaxz} remap units box
change_box all x delta 0 -5.01827395054772e-06 xy delta -0 xz delta ${deltaxz} remap units box
change_box all x delta 0 -5.01827395054772e-06 xy delta -0 xz delta -0 remap units box
Changing box ...
  triclinic box = (-0.020121155 -0.020460367 0.019174345) to (4.9981478 4.998492 7.0208256) with tilt (0 0 0)
  triclinic box = (-0.020121155 -0.020460367 0.019174345) to (4.9981478 4.998492 7.0208256) with tilt (0 0 0)
  triclinic box = (-0.020121155 -0.020460367 0.019174345) to (4.9981478 4.998492 7.0208256) with tilt (0 0 0)
if "${dir} == 2" then    "change_box all y delta 0 ${delta} yz delta ${deltayz} remap units box"
if "${dir} == 3" then    "change_box all z delta 0 ${delta} remap units box"
if "${dir} == 4" then    "change_box all yz delta ${delta} remap units box"
if "${dir} == 5" then    "change_box all xz delta ${delta} remap units box"
if "${dir} == 6" then    "change_box all xy delta ${delta} remap units box"

# Relax atoms positions

minimize ${etol} ${ftol} ${maxiter} ${maxeval}
minimize 0 ${ftol} ${maxiter} ${maxeval}
minimize 0 1e-10 ${maxiter} ${maxeval}
minimize 0 1e-10 100 ${maxeval}
minimize 0 1e-10 100 1000
Neighbor list info ...
  update: every = 1 steps, delay = 0 steps, check = yes
  max neighbors/atom: 2000, page size: 100000
  master list distance cutoff = 6.6
  ghost atom cutoff = 6.6
  1 neighbor lists, perpetual/occasional/extra = 1 0 0
  (1) pair eam/alloy, perpetual
      attributes: half, newton on
      pair build: half/nsq/newton
      stencil: none
      bin: none
Per MPI rank memory allocation (min/avg/max) = 4.455 | 4.455 | 4.455 Mbytes
   Step          Temp          PotEng         Press           Pxx            Pyy            Pzz            Pxy            Pxz            Pyz             Lx             Ly             Lz           Volume    
       100   0             -67.091741      120.09729      2374           2383.2176     -4396.9257      779.48339      521.92704     -157.87329      5.0182689      5.0189524      7.0016513      176.34676    
       101   0             -67.112656     -156.08969      2148.0782      2073.5402     -4689.8874      883.35115      297.12318     -171.66953      5.0182689      5.0189524      7.0016513      176.34676    
       102   0             -67.118215     -212.27869      2146.0418      1981.918      -4764.7959      998.49447      48.274209     -208.76681      5.0182689      5.0189524      7.0016513      176.34676    
       103   0             -67.119664     -223.84891      2130.5483      1997.1799     -4799.275       1064.1505      5.3136627     -166.29112      5.0182689      5.0189524      7.0016513      176.34676    
       104   0             -67.120439     -213.92069      2159.5653      1995.9964     -4797.3238      1112.7885     -39.178039     -57.493697      5.0182689      5.0189524      7.0016513      176.34676    
       105   0             -67.120662     -195.34773      2178.3019      2025.7156     -4790.0607      1116.468      -64.575758     -36.898454      5.0182689      5.0189524      7.0016513      176.34676    
       106   0             -67.120735     -175.01203      2213.9998      2046.9008     -4785.9367      1114.5148     -34.053682     -1.7290537      5.0182689      5.0189524      7.0016513      176.34676    
       107   0             -67.120755     -167.8962       2233.68        2047.3508     -4784.7194      1118.3714     -21.058683     -5.7081294      5.0182689      5.0189524      7.0016513      176.34676    
       108   0             -67.120765     -163.82555      2244.9857      2047.1384     -4783.6008      1121.8284     -17.266943     -13.863344      5.0182689      5.0189524      7.0016513      176.34676    
       109   0             -67.120768     -161.43321      2253.9622      2044.7801     -4783.042       1125.1765     -9.174556      -12.672576      5.0182689      5.0189524      7.0016513      176.34676    
       110   0             -67.12077      -159.30077      2261.9939      2043.6086     -4783.5049      1127.9453     -2.7132932     -5.7994562      5.0182689      5.0189524      7.0016513      176.34676    
       111   0             -67.12077      -159.30622      2265.346       2040.8176     -4784.0823      1129.0467     -0.76746444    -0.90616613     5.0182689      5.0189524      7.0016513      176.34676    
       112   0             -67.12077      -159.74822      2264.9319      2039.8262     -4784.0028      1128.9858     -0.37855154    -0.091868006    5.0182689      5.0189524      7.0016513      176.34676    
       113   0             -67.12077      -160.05084      2264.4144      2039.2783     -4783.8453      1128.775      -0.23012143     0.017003079    5.0182689      5.0189524      7.0016513      176.34676    
       114   0             -67.12077      -160.18198      2264.0824      2039.2081     -4783.8364      1128.6012     -0.46200425    -0.28400409     5.0182689      5.0189524      7.0016513      176.34676    
       115   0             -67.12077      -160.31727      2263.7968      2039.2146     -4783.9632      1128.4232     -0.065126463   -0.11338386     5.0182689      5.0189524      7.0016513      176.34676    
       116   0             -67.12077      -160.40277      2263.665       2039.1364     -4784.0097      1128.3404     -0.035813767   -0.052394476    5.0182689      5.0189524      7.0016513      176.34676    
       117   0             -67.12077      -160.48034      2263.5231      2039.061      -4784.0252      1128.2709     -0.033628996   -0.040210632    5.0182689      5.0189524      7.0016513      176.34676    
       118   0             -67.12077      -160.50303      2263.477       2039.032      -4784.0181      1128.22       -0.0015453273  -0.01664806     5.0182689      5.0189524      7.0016513      176.34676    
       119   0             -67.12077      -160.49944      2263.4859      2039.037      -4784.0212      1128.2112     -0.013182494   -0.03023466     5.0182689      5.0189524      7.0016513      176.34676    
       120   0             -67.12077      -160.50085      2263.4858      2039.0379     -4784.0262      1128.2087     -0.0058280933  -0.018185188    5.0182689      5.0189524      7.0016513      176.34676    
       121   0             -67.12077      -160.50545      2263.4802      2039.0316     -4784.0281      1128.2081      0.0019281452  -0.004553895    5.0182689      5.0189524      7.0016513      176.34676    
       122   0             -67.12077      -160.50942      2263.4725      2039.0268     -4784.0276      1128.2083      3.3729016e-05 -5.5973068e-05  5.0182689      5.0189524      7.0016513      176.34676    
       123   0             -67.12077      -160.50949      2263.4709      2039.0281     -4784.0274      1128.2085      1.7967581e-05  0.0010688388   5.0182689      5.0189524      7.0016513      176.34676    
       124   0             -67.12077      -160.50897      2263.4704      2039.0302     -4784.0275      1128.2087     -0.00027483826  0.00048643768  5.0182689      5.0189524      7.0016513      176.34676    
       125   0             -67.12077      -160.50869      2263.4701      2039.0314     -4784.0276      1128.2088     -5.5525641e-05  1.9106912e-05  5.0182689      5.0189524      7.0016513      176.34676    
       126   0             -67.12077      -160.50867      2263.4696      2039.0319     -4784.0275      1128.2089      6.0655396e-05 -0.00027882237  5.0182689      5.0189524      7.0016513      176.34676    
       127   0             -67.12077      -160.50865      2263.4691      2039.0324     -4784.0275      1128.209       8.9001398e-05 -0.0001236435   5.0182689      5.0189524      7.0016513      176.34676    
       128   0             -67.12077      -160.50858      2263.4691      2039.0326     -4784.0275      1128.209      -2.3906402e-05 -4.4119741e-05  5.0182689      5.0189524      7.0016513      176.34676    
       129   0             -67.12077      -160.50854      2263.4692      2039.0327     -4784.0275      1128.209      -4.8467828e-05 -1.8097368e-06  5.0182689      5.0189524      7.0016513      176.34676    
       130   0             -67.12077      -160.50852      2263.4692      2039.0327     -4784.0275      1128.209      -3.4170364e-05  1.9352005e-05  5.0182689      5.0189524      7.0016513      176.34676    
       131   0             -67.12077      -160.50853      2263.4691      2039.0327     -4784.0274      1128.2091     -3.3251296e-06 -4.8665059e-06  5.0182689      5.0189524      7.0016513      176.34676    
       132   0             -67.12077      -160.50854      2263.4691      2039.0327     -4784.0274      1128.2091      8.3489001e-06 -1.8888696e-06  5.0182689      5.0189524      7.0016513      176.34676    
       133   0             -67.12077      -160.50853      2263.4691      2039.0327     -4784.0274      1128.209       6.6341612e-06 -2.0376709e-06  5.0182689      5.0189524      7.0016513      176.34676    
       134   0             -67.12077      -160.50853      2263.4691      2039.0327     -4784.0274      1128.209       2.4015552e-06  5.4208442e-08  5.0182689      5.0189524      7.0016513      176.34676    
       135   0             -67.12077      -160.50853      2263.4692      2039.0327     -4784.0274      1128.209       4.9957061e-07  1.8942401e-06  5.0182689      5.0189524      7.0016513      176.34676    
       136   0             -67.12077      -160.50853      2263.4692      2039.0327     -4784.0274      1128.209      -5.4498526e-07  8.5798437e-07  5.0182689      5.0189524      7.0016513      176.34676    
       137   0             -67.12077      -160.50853      2263.4692      2039.0327     -4784.0274      1128.209      -1.7165729e-07  1.7572851e-07  5.0182689      5.0189524      7.0016513      176.34676    
       138   0             -67.12077      -160.50853      2263.4692      2039.0327     -4784.0274      1128.209       8.6134403e-08 -2.6834431e-08  5.0182689      5.0189524      7.0016513      176.34676    
       139   0             -67.12077      -160.50853      2263.4692      2039.0327     -4784.0274      1128.209       3.9579945e-08 -6.2454585e-08  5.0182689      5.0189524      7.0016513      176.34676    
Loop time of 0.00140761 on 1 procs for 39 steps with 16 atoms

100.0% CPU use with 1 MPI tasks x 1 OpenMP threads

Minimization stats:
  Stopping criterion = force tolerance
  Energy initial, next-to-last, final = 
     -67.0917414518732  -67.1207701231975  -67.1207701231977
  Force two-norm initial, final = 0.97309866 6.1921779e-11
  Force max component initial, final = 0.29835648 1.6579474e-11
  Final line search alpha, max atom move = 1 1.6579474e-11
  Iterations, force evaluations = 39 76

MPI task timing breakdown:
Section |  min time  |  avg time  |  max time  |%varavg| %total
---------------------------------------------------------------
Pair    | 0.0011049  | 0.0011049  | 0.0011049  |   0.0 | 78.49
Neigh   | 0          | 0          | 0          |   0.0 |  0.00
Comm    | 8.1836e-05 | 8.1836e-05 | 8.1836e-05 |   0.0 |  5.81
Output  | 0.00017915 | 0.00017915 | 0.00017915 |   0.0 | 12.73
Modify  | 0          | 0          | 0          |   0.0 |  0.00
Other   |            | 4.178e-05  |            |       |  2.97

Nlocal:             16 ave          16 max          16 min
Histogram: 1 0 0 0 0 0 0 0 0 0
Nghost:            572 ave         572 max         572 min
Histogram: 1 0 0 0 0 0 0 0 0 0
Neighs:            826 ave         826 max         826 min
Histogram: 1 0 0 0 0 0 0 0 0 0

Total # of neighbors = 826
Ave neighs/atom = 51.625
Neighbor list builds = 0
Dangerous builds = 0

# Obtain new stress tensor

variable tmp equal pxx
variable pxx1 equal ${tmp}
variable pxx1 equal 2263.46915063223
variable tmp equal pyy
variable pyy1 equal ${tmp}
variable pyy1 equal 2039.03269522153
variable tmp equal pzz
variable pzz1 equal ${tmp}
variable pzz1 equal -4784.02744679421
variable tmp equal pxy
variable pxy1 equal ${tmp}
variable pxy1 equal 1128.2090482943
variable tmp equal pxz
variable pxz1 equal ${tmp}
variable pxz1 equal 3.95799449676869e-08
variable tmp equal pyz
variable pyz1 equal ${tmp}
variable pyz1 equal -6.24545848093643e-08

# Compute elastic constant from pressure tensor

variable C1neg equal ${d1}
variable C1neg equal -10839.277263622
variable C2neg equal ${d2}
variable C2neg equal -34377.242772823
variable C3neg equal ${d3}
variable C3neg equal -38602.560515381
variable C4neg equal ${d4}
variable C4neg equal 15788.757252651
variable C5neg equal ${d5}
variable C5neg equal -52203.2770001466
variable C6neg equal ${d6}
variable C6neg equal 34874.8720109389

# Reset box and simulation parameters

clear
OMP_NUM_THREADS environment is not set. Defaulting to 1 thread. (src/comm.cpp:98)
  using 1 OpenMP thread(s) per MPI task
box tilt large

The 'box' command has been removed and will be ignored

read_restart restart.equil
Reading restart file ...
  restart file = 28 Mar 2023, LAMMPS = 28 Mar 2023
  restoring atom style atomic from restart
  triclinic box = (-0.020121155 -0.020460367 0.019174345) to (4.9981528 4.998492 7.0208256) with tilt (0 0 0)
  1 by 1 by 1 MPI processor grid
  pair style eam/alloy stores no restart info
  16 atoms
  read_restart CPU = 0.000 seconds
include potential.mod
# Choose potential
pair_style  eam/alloy
pair_coeff  * * ../../../potentials/NiFeCr.eam.alloy Cr Ni

# Setup neighbor style
neighbor 1.0 nsq
neigh_modify once no every 1 delay 0 check yes

# Setup minimization style
min_style            cg
min_modify           dmax ${dmax} line quadratic
min_modify           dmax 0.01 line quadratic

# Setup output
thermo          1
thermo_style custom step temp pe press pxx pyy pzz pxy pxz pyz lx ly lz vol
thermo_modify norm no

# Positive deformation

variable delta equal ${up}*${len0}
variable delta equal 1e-06*${len0}
variable delta equal 1e-06*5.01827395054772
variable deltaxy equal ${up}*xy
variable deltaxy equal 1e-06*xy
variable deltaxz equal ${up}*xz
variable deltaxz equal 1e-06*xz
variable deltayz equal ${up}*yz
variable deltayz equal 1e-06*yz
if "${dir} == 1" then    "change_box all x delta 0 ${delta} xy delta ${deltaxy} xz delta ${deltaxz} remap units box"
change_box all x delta 0 ${delta} xy delta ${deltaxy} xz delta ${deltaxz} remap units box
change_box all x delta 0 5.01827395054772e-06 xy delta ${deltaxy} xz delta ${deltaxz} remap units box
change_box all x delta 0 5.01827395054772e-06 xy delta 0 xz delta ${deltaxz} remap units box
change_box all x delta 0 5.01827395054772e-06 xy delta 0 xz delta 0 remap units box
Changing box ...
  triclinic box = (-0.020121155 -0.020460367 0.019174345) to (4.9981578 4.998492 7.0208256) with tilt (0 0 0)
  triclinic box = (-0.020121155 -0.020460367 0.019174345) to (4.9981578 4.998492 7.0208256) with tilt (0 0 0)
  triclinic box = (-0.020121155 -0.020460367 0.019174345) to (4.9981578 4.998492 7.0208256) with tilt (0 0 0)
if "${dir} == 2" then    "change_box all y delta 0 ${delta} yz delta ${deltayz} remap units box"
if "${dir} == 3" then    "change_box all z delta 0 ${delta} remap units box"
if "${dir} == 4" then    "change_box all yz delta ${delta} remap units box"
if "${dir} == 5" then    "change_box all xz delta ${delta} remap units box"
if "${dir} == 6" then    "change_box all xy delta ${delta} remap units box"

# Relax atoms positions

minimize ${etol} ${ftol} ${maxiter} ${maxeval}
minimize 0 ${ftol} ${maxiter} ${maxeval}
minimize 0 1e-10 ${maxiter} ${maxeval}
minimize 0 1e-10 100 ${maxeval}
minimize 0 1e-10 100 1000
Neighbor list info ...
  update: every = 1 steps, delay = 0 steps, check = yes
  max neighbors/atom: 2000, page size: 100000
  master list distance cutoff = 6.6
  ghost atom cutoff = 6.6
  1 neighbor lists, perpetual/occasional/extra = 1 0 0
  (1) pair eam/alloy, perpetual
      attributes: half, newton on
      pair build: half/nsq/newton
      stencil: none
      bin: none
Per MPI rank memory allocation (min/avg/max) = 4.455 | 4.455 | 4.455 Mbytes
   Step          Temp          PotEng         Press           Pxx            Pyy            Pzz            Pxy            Pxz            Pyz             Lx             Ly             Lz           Volume    
       100   0             -67.091742      117.4653       2369.6219      2382.1969     -4399.4229      779.57913      521.95698     -157.87507      5.018279       5.0189524      7.0016513      176.34711    
       101   0             -67.112657     -158.71039      2143.7152      2072.537      -4692.3834      883.44692      297.14258     -171.67136      5.018279       5.0189524      7.0016513      176.34711    
       102   0             -67.118216     -214.88697      2141.7009      1980.9291     -4767.291       998.59188      48.280961     -208.76862      5.018279       5.0189524      7.0016513      176.34711    
       103   0             -67.119665     -226.44952      2126.2242      1996.1953     -4801.7681      1064.2511      5.3145519     -166.29528      5.018279       5.0189524      7.0016513      176.34711    
       104   0             -67.120439     -216.51932      2155.2494      1995.0089     -4799.8163      1112.8932     -39.178281     -57.496614      5.018279       5.0189524      7.0016513      176.34711    
       105   0             -67.120662     -197.9457       2173.991       2024.724      -4792.5521      1116.5748     -64.577388     -36.899642      5.018279       5.0189524      7.0016513      176.34711    
       106   0             -67.120735     -177.61004      2209.6917      2045.9059     -4788.4278      1114.6223     -34.053563     -1.7273796      5.018279       5.0189524      7.0016513      176.34711    
       107   0             -67.120755     -170.49362      2229.3751      2046.3543     -4787.2103      1118.4794     -21.058825     -5.7074875      5.018279       5.0189524      7.0016513      176.34711    
       108   0             -67.120765     -166.422        2240.684       2046.1412     -4786.0913      1121.9369     -17.267841     -13.863192      5.018279       5.0189524      7.0016513      176.34711    
       109   0             -67.120769     -164.02949      2249.6619      2043.7818     -4785.5322      1125.2852     -9.1750765     -12.672543      5.018279       5.0189524      7.0016513      176.34711    
       110   0             -67.12077      -161.89716      2257.6943      2042.6091     -4785.995       1128.054      -2.7135345     -5.7999272      5.018279       5.0189524      7.0016513      176.34711    
       111   0             -67.120771     -161.90256      2261.0471      2039.8177     -4786.5724      1129.1554     -0.76747216    -0.90618931     5.018279       5.0189524      7.0016513      176.34711    
       112   0             -67.120771     -162.34455      2260.6331      2038.8262     -4786.4929      1129.0946     -0.37865682    -0.091929133    5.018279       5.0189524      7.0016513      176.34711    
       113   0             -67.120771     -162.64712      2260.1157      2038.2783     -4786.3354      1128.8837     -0.23021796     0.016950344    5.018279       5.0189524      7.0016513      176.34711    
       114   0             -67.120771     -162.77824      2259.7837      2038.2081     -4786.3265      1128.71       -0.46207505    -0.28400513     5.018279       5.0189524      7.0016513      176.34711    
       115   0             -67.120771     -162.91352      2259.4982      2038.2146     -4786.4533      1128.532      -0.065137749   -0.11337546     5.018279       5.0189524      7.0016513      176.34711    
       116   0             -67.120771     -162.99902      2259.3664      2038.1363     -4786.4998      1128.4492     -0.035825417   -0.052399066    5.018279       5.0189524      7.0016513      176.34711    
       117   0             -67.120771     -163.0766       2259.2246      2038.0609     -4786.5153      1128.3797     -0.033635998   -0.040212483    5.018279       5.0189524      7.0016513      176.34711    
       118   0             -67.120771     -163.09929      2259.1785      2038.0319     -4786.5082      1128.3288     -0.0015498298  -0.016649671    5.018279       5.0189524      7.0016513      176.34711    
       119   0             -67.120771     -163.0957       2259.1874      2038.0369     -4786.5113      1128.32       -0.013187001   -0.030240447    5.018279       5.0189524      7.0016513      176.34711    
       120   0             -67.120771     -163.09711      2259.1872      2038.0378     -4786.5163      1128.3175     -0.0058304769  -0.01818892     5.018279       5.0189524      7.0016513      176.34711    
       121   0             -67.120771     -163.10171      2259.1816      2038.0315     -4786.5182      1128.3169      0.0019273861  -0.0045548798   5.018279       5.0189524      7.0016513      176.34711    
       122   0             -67.120771     -163.10568      2259.1739      2038.0267     -4786.5177      1128.3171      3.1678618e-05 -5.7894544e-05  5.018279       5.0189524      7.0016513      176.34711    
       123   0             -67.120771     -163.10575      2259.1723      2038.028      -4786.5176      1128.3173      1.7256211e-05  0.0010686335   5.018279       5.0189524      7.0016513      176.34711    
       124   0             -67.120771     -163.10523      2259.1718      2038.0301     -4786.5176      1128.3175     -0.0002757073   0.00048583229  5.018279       5.0189524      7.0016513      176.34711    
       125   0             -67.120771     -163.10495      2259.1716      2038.0313     -4786.5177      1128.3176     -5.6074875e-05  1.8729833e-05  5.018279       5.0189524      7.0016513      176.34711    
       126   0             -67.120771     -163.10493      2259.1711      2038.0318     -4786.5177      1128.3177      6.0513915e-05 -0.00027882573  5.018279       5.0189524      7.0016513      176.34711    
       127   0             -67.120771     -163.10491      2259.1705      2038.0323     -4786.5176      1128.3178      8.8898998e-05 -0.0001237345   5.018279       5.0189524      7.0016513      176.34711    
       128   0             -67.120771     -163.10484      2259.1706      2038.0325     -4786.5176      1128.3178     -2.3940085e-05 -4.4164929e-05  5.018279       5.0189524      7.0016513      176.34711    
       129   0             -67.120771     -163.1048       2259.1706      2038.0326     -4786.5176      1128.3178     -4.8481158e-05 -1.8269765e-06  5.018279       5.0189524      7.0016513      176.34711    
       130   0             -67.120771     -163.10479      2259.1706      2038.0326     -4786.5176      1128.3178     -3.419484e-05   1.9324559e-05  5.018279       5.0189524      7.0016513      176.34711    
       131   0             -67.120771     -163.1048       2259.1706      2038.0326     -4786.5176      1128.3178     -3.3417076e-06 -4.8713799e-06  5.018279       5.0189524      7.0016513      176.34711    
       132   0             -67.120771     -163.1048       2259.1706      2038.0326     -4786.5176      1128.3178      8.3307085e-06 -1.8945531e-06  5.018279       5.0189524      7.0016513      176.34711    
       133   0             -67.120771     -163.1048       2259.1706      2038.0326     -4786.5176      1128.3178      6.6231736e-06 -2.0418528e-06  5.018279       5.0189524      7.0016513      176.34711    
       134   0             -67.120771     -163.10479      2259.1706      2038.0326     -4786.5176      1128.3178      2.4002908e-06  4.8681634e-08  5.018279       5.0189524      7.0016513      176.34711    
       135   0             -67.120771     -163.1048       2259.1706      2038.0326     -4786.5176      1128.3178      5.0171721e-07  1.8885253e-06  5.018279       5.0189524      7.0016513      176.34711    
       136   0             -67.120771     -163.1048       2259.1706      2038.0326     -4786.5176      1128.3178     -5.423142e-07   8.5626163e-07  5.018279       5.0189524      7.0016513      176.34711    
       137   0             -67.120771     -163.1048       2259.1706      2038.0326     -4786.5176      1128.3178     -1.7078432e-07  1.7597784e-07  5.018279       5.0189524      7.0016513      176.34711    
       138   0             -67.120771     -163.1048       2259.1706      2038.0326     -4786.5176      1128.3178      8.5929847e-08 -2.6817703e-08  5.018279       5.0189524      7.0016513      176.34711    
       139   0             -67.120771     -163.1048       2259.1706      2038.0326     -4786.5176      1128.3178      3.9583648e-08 -6.2411969e-08  5.018279       5.0189524      7.0016513      176.34711    
Loop time of 0.00139158 on 1 procs for 39 steps with 16 atoms

100.0% CPU use with 1 MPI tasks x 1 OpenMP threads

Minimization stats:
  Stopping criterion = force tolerance
  Energy initial, next-to-last, final = 
     -67.0917419739795  -67.1207706209767  -67.1207706209766
  Force two-norm initial, final = 0.97309507 6.1920839e-11
  Force max component initial, final = 0.29835705 1.6594004e-11
  Final line search alpha, max atom move = 1 1.6594004e-11
  Iterations, force evaluations = 39 76

MPI task timing breakdown:
Section |  min time  |  avg time  |  max time  |%varavg| %total
---------------------------------------------------------------
Pair    | 0.0010991  | 0.0010991  | 0.0010991  |   0.0 | 78.98
Neigh   | 0          | 0          | 0          |   0.0 |  0.00
Comm    | 8.1976e-05 | 8.1976e-05 | 8.1976e-05 |   0.0 |  5.89
Output  | 0.00016993 | 0.00016993 | 0.00016993 |   0.0 | 12.21
Modify  | 0          | 0          | 0          |   0.0 |  0.00
Other   |            | 4.057e-05  |            |       |  2.92

Nlocal:             16 ave          16 max          16 min
Histogram: 1 0 0 0 0 0 0 0 0 0
Nghost:            572 ave         572 max         572 min
Histogram: 1 0 0 0 0 0 0 0 0 0
Neighs:            826 ave         826 max         826 min
Histogram: 1 0 0 0 0 0 0 0 0 0

Total # of neighbors = 826
Ave neighs/atom = 51.625
Neighbor list builds = 0
Dangerous builds = 0

# Obtain new stress tensor

variable tmp equal pe
variable e1 equal ${tmp}
variable e1 equal -67.1207706209766
variable tmp equal press
variable p1 equal ${tmp}
variable p1 equal -163.104795842233
variable tmp equal pxx
variable pxx1 equal ${tmp}
variable pxx1 equal 2259.17058550805
variable tmp equal pyy
variable pyy1 equal ${tmp}
variable pyy1 equal 2038.03259102934
variable tmp equal pzz
variable pzz1 equal ${tmp}
variable pzz1 equal -4786.51756406408
variable tmp equal pxy
variable pxy1 equal ${tmp}
variable pxy1 equal 1128.3178429077
variable tmp equal pxz
variable pxz1 equal ${tmp}
variable pxz1 equal 3.95836483476535e-08
variable tmp equal pyz
variable pyz1 equal ${tmp}
variable pyz1 equal -6.2411969370153e-08

# Compute elastic constant from pressure tensor

variable C1pos equal ${d1}
variable C1pos equal 11269.13377604
variable C2pos equal ${d2}
variable C2pos equal 34477.253192042
variable C3pos equal ${d3}
variable C3pos equal 38851.572242368
variable C4pos equal ${d4}
variable C4pos equal -15788.7572526553
variable C5pos equal ${d5}
variable C5pos equal 52203.2770001462
variable C6pos equal ${d6}
variable C6pos equal -34885.7514722789

# Combine positive and negative

variable C1${dir} equal 0.5*(${C1neg}+${C1pos})
variable C11 equal 0.5*(${C1neg}+${C1pos})
variable C11 equal 0.5*(-10839.277263622+${C1pos})
variable C11 equal 0.5*(-10839.277263622+11269.13377604)
variable C2${dir} equal 0.5*(${C2neg}+${C2pos})
variable C21 equal 0.5*(${C2neg}+${C2pos})
variable C21 equal 0.5*(-34377.242772823+${C2pos})
variable C21 equal 0.5*(-34377.242772823+34477.253192042)
variable C3${dir} equal 0.5*(${C3neg}+${C3pos})
variable C31 equal 0.5*(${C3neg}+${C3pos})
variable C31 equal 0.5*(-38602.560515381+${C3pos})
variable C31 equal 0.5*(-38602.560515381+38851.572242368)
variable C4${dir} equal 0.5*(${C4neg}+${C4pos})
variable C41 equal 0.5*(${C4neg}+${C4pos})
variable C41 equal 0.5*(15788.757252651+${C4pos})
variable C41 equal 0.5*(15788.757252651+-15788.7572526553)
variable C5${dir} equal 0.5*(${C5neg}+${C5pos})
variable C51 equal 0.5*(${C5neg}+${C5pos})
variable C51 equal 0.5*(-52203.2770001466+${C5pos})
variable C51 equal 0.5*(-52203.2770001466+52203.2770001462)
variable C6${dir} equal 0.5*(${C6neg}+${C6pos})
variable C61 equal 0.5*(${C6neg}+${C6pos})
variable C61 equal 0.5*(34874.8720109389+${C6pos})
variable C61 equal 0.5*(34874.8720109389+-34885.7514722789)

# Delete dir to make sure it is not reused

variable dir delete


# uyy Perturbation

variable dir equal 2
include displace.mod
# NOTE: This script should not need to be
# modified. See in.elastic for more info.
#
# Find which reference length to use

if "${dir} == 1" then    "variable len0 equal ${lx0}"
if "${dir} == 2" then    "variable len0 equal ${ly0}"
variable len0 equal ${ly0}
variable len0 equal 5.01895237474462
if "${dir} == 3" then    "variable len0 equal ${lz0}"
if "${dir} == 4" then    "variable len0 equal ${lz0}"
if "${dir} == 5" then    "variable len0 equal ${lz0}"
if "${dir} == 6" then    "variable len0 equal ${ly0}"

# Reset box and simulation parameters

clear
OMP_NUM_THREADS environment is not set. Defaulting to 1 thread. (src/comm.cpp:98)
  using 1 OpenMP thread(s) per MPI task
box tilt large

The 'box' command has been removed and will be ignored

read_restart restart.equil
Reading restart file ...
  restart file = 28 Mar 2023, LAMMPS = 28 Mar 2023
  restoring atom style atomic from restart
  triclinic box = (-0.020121155 -0.020460367 0.019174345) to (4.9981528 4.998492 7.0208256) with tilt (0 0 0)
  1 by 1 by 1 MPI processor grid
  pair style eam/alloy stores no restart info
  16 atoms
  read_restart CPU = 0.000 seconds
include potential.mod
# Choose potential
pair_style  eam/alloy
pair_coeff  * * ../../../potentials/NiFeCr.eam.alloy Cr Ni

# Setup neighbor style
neighbor 1.0 nsq
neigh_modify once no every 1 delay 0 check yes

# Setup minimization style
min_style            cg
min_modify           dmax ${dmax} line quadratic
min_modify           dmax 0.01 line quadratic

# Setup output
thermo          1
thermo_style custom step temp pe press pxx pyy pzz pxy pxz pyz lx ly lz vol
thermo_modify norm no

# Negative deformation

variable delta equal -${up}*${len0}
variable delta equal -1e-06*${len0}
variable delta equal -1e-06*5.01895237474462
variable deltaxy equal -${up}*xy
variable deltaxy equal -1e-06*xy
variable deltaxz equal -${up}*xz
variable deltaxz equal -1e-06*xz
variable deltayz equal -${up}*yz
variable deltayz equal -1e-06*yz
if "${dir} == 1" then    "change_box all x delta 0 ${delta} xy delta ${deltaxy} xz delta ${deltaxz} remap units box"
if "${dir} == 2" then    "change_box all y delta 0 ${delta} yz delta ${deltayz} remap units box"
change_box all y delta 0 ${delta} yz delta ${deltayz} remap units box
change_box all y delta 0 -5.01895237474462e-06 yz delta ${deltayz} remap units box
change_box all y delta 0 -5.01895237474462e-06 yz delta -0 remap units box
Changing box ...
  triclinic box = (-0.020121155 -0.020460367 0.019174345) to (4.9981528 4.998487 7.0208256) with tilt (0 0 0)
  triclinic box = (-0.020121155 -0.020460367 0.019174345) to (4.9981528 4.998487 7.0208256) with tilt (0 0 0)
if "${dir} == 3" then    "change_box all z delta 0 ${delta} remap units box"
if "${dir} == 4" then    "change_box all yz delta ${delta} remap units box"
if "${dir} == 5" then    "change_box all xz delta ${delta} remap units box"
if "${dir} == 6" then    "change_box all xy delta ${delta} remap units box"

# Relax atoms positions

minimize ${etol} ${ftol} ${maxiter} ${maxeval}
minimize 0 ${ftol} ${maxiter} ${maxeval}
minimize 0 1e-10 ${maxiter} ${maxeval}
minimize 0 1e-10 100 ${maxeval}
minimize 0 1e-10 100 1000
Neighbor list info ...
  update: every = 1 steps, delay = 0 steps, check = yes
  max neighbors/atom: 2000, page size: 100000
  master list distance cutoff = 6.6
  ghost atom cutoff = 6.6
  1 neighbor lists, perpetual/occasional/extra = 1 0 0
  (1) pair eam/alloy, perpetual
      attributes: half, newton on
      pair build: half/nsq/newton
      stencil: none
      bin: none
Per MPI rank memory allocation (min/avg/max) = 4.455 | 4.455 | 4.455 Mbytes
   Step          Temp          PotEng         Press           Pxx            Pyy            Pzz            Pxy            Pxz            Pyz             Lx             Ly             Lz           Volume    
       100   0             -67.091741      120.0987       2372.3213      2384.9017     -4396.9269      779.48086      521.9381      -157.87002      5.018274       5.0189474      7.0016513      176.34676    
       101   0             -67.112656     -156.08624      2146.3987      2075.2305     -4689.8879      883.34998      297.13212     -171.66555      5.018274       5.0189474      7.0016513      176.34676    
       102   0             -67.118215     -212.27675      2144.3653      1983.6007     -4764.7963      998.49359      48.279284     -208.76155      5.018274       5.0189474      7.0016513      176.34676    
       103   0             -67.119664     -223.8484       2128.8783      1998.8523     -4799.2758      1064.15        5.3157676     -166.28761      5.018274       5.0189474      7.0016513      176.34676    
       104   0             -67.120439     -213.9218       2157.9013      1997.6578     -4797.3245      1112.7882     -39.176284     -57.493179      5.018274       5.0189474      7.0016513      176.34676    
       105   0             -67.120662     -195.34874      2176.6431      2027.3719     -4790.0612      1116.4679     -64.575192     -36.897894      5.018274       5.0189474      7.0016513      176.34676    
       106   0             -67.120735     -175.01312      2212.3443      2048.5535     -4785.9372      1114.5146     -34.05308      -1.7278932      5.018274       5.0189474      7.0016513      176.34676    
       107   0             -67.120755     -167.89723      2232.0267      2049.0015     -4784.7199      1118.3712     -21.058062     -5.7075588      5.018274       5.0189474      7.0016513      176.34676    
       108   0             -67.120765     -163.82647      2243.3343      2048.7875     -4783.6013      1121.8283     -17.266746     -13.862906      5.018274       5.0189474      7.0016513      176.34676    
       109   0             -67.120768     -161.43407      2252.3118      2046.4283     -4783.0423      1125.1764     -9.1745707     -12.672088      5.018274       5.0189474      7.0016513      176.34676    
       110   0             -67.12077      -159.30158      2260.3442      2045.2561     -4783.5051      1127.9452     -2.7133322     -5.7995758      5.018274       5.0189474      7.0016513      176.34676    
       111   0             -67.12077      -159.30697      2263.6967      2042.4648     -4784.0824      1129.0466     -0.76746672    -0.90611967     5.018274       5.0189474      7.0016513      176.34676    
       112   0             -67.12077      -159.74894      2263.2827      2041.4734     -4784.0029      1128.9857     -0.37861796    -0.091900564    5.018274       5.0189474      7.0016513      176.34676    
       113   0             -67.12077      -160.05154      2262.7653      2040.9255     -4783.8454      1128.7749     -0.23015851     0.016969269    5.018274       5.0189474      7.0016513      176.34676    
       114   0             -67.12077      -160.18267      2262.4333      2040.8553     -4783.8366      1128.6011     -0.46202881    -0.28399651     5.018274       5.0189474      7.0016513      176.34676    
       115   0             -67.12077      -160.31795      2262.1477      2040.8618     -4783.9634      1128.4232     -0.065136558   -0.1133773      5.018274       5.0189474      7.0016513      176.34676    
       116   0             -67.12077      -160.40345      2262.016       2040.7835     -4784.0098      1128.3404     -0.035825027   -0.052400649    5.018274       5.0189474      7.0016513      176.34676    
       117   0             -67.12077      -160.48102      2261.8741      2040.7081     -4784.0253      1128.2708     -0.033634746   -0.040211426    5.018274       5.0189474      7.0016513      176.34676    
       118   0             -67.12077      -160.50371      2261.828       2040.6791     -4784.0182      1128.22       -0.0015491724  -0.016647307    5.018274       5.0189474      7.0016513      176.34676    
       119   0             -67.12077      -160.50012      2261.8369      2040.6841     -4784.0213      1128.2111     -0.013186492   -0.030237404    5.018274       5.0189474      7.0016513      176.34676    
       120   0             -67.12077      -160.50153      2261.8368      2040.685      -4784.0264      1128.2086     -0.0058308265  -0.018186954    5.018274       5.0189474      7.0016513      176.34676    
       121   0             -67.12077      -160.50613      2261.8312      2040.6787     -4784.0283      1128.208       0.0019268621  -0.0045540705   5.018274       5.0189474      7.0016513      176.34676    
       122   0             -67.12077      -160.5101       2261.8235      2040.6739     -4784.0277      1128.2082      3.1739541e-05 -5.7607129e-05  5.018274       5.0189474      7.0016513      176.34676    
       123   0             -67.12077      -160.51016      2261.8219      2040.6752     -4784.0276      1128.2084      1.7362735e-05  0.0010686054   5.018274       5.0189474      7.0016513      176.34676    
       124   0             -67.12077      -160.50965      2261.8214      2040.6773     -4784.0277      1128.2087     -0.00027561138  0.00048580826  5.018274       5.0189474      7.0016513      176.34676    
       125   0             -67.12077      -160.50937      2261.8211      2040.6785     -4784.0277      1128.2087     -5.6064521e-05  1.8728333e-05  5.018274       5.0189474      7.0016513      176.34676    
       126   0             -67.12077      -160.50935      2261.8206      2040.679      -4784.0277      1128.2088      6.0492415e-05 -0.00027880179  5.018274       5.0189474      7.0016513      176.34676    
       127   0             -67.12077      -160.50933      2261.8201      2040.6795     -4784.0276      1128.2089      8.8878496e-05 -0.00012371148  5.018274       5.0189474      7.0016513      176.34676    
       128   0             -67.12077      -160.50926      2261.8201      2040.6797     -4784.0276      1128.2089     -2.3938039e-05 -4.4159334e-05  5.018274       5.0189474      7.0016513      176.34676    
       129   0             -67.12077      -160.50921      2261.8201      2040.6798     -4784.0276      1128.209      -4.8473246e-05 -1.8280384e-06  5.018274       5.0189474      7.0016513      176.34676    
       130   0             -67.12077      -160.5092       2261.8202      2040.6798     -4784.0276      1128.209      -3.4188014e-05  1.9322354e-05  5.018274       5.0189474      7.0016513      176.34676    
       131   0             -67.12077      -160.50921      2261.8201      2040.6798     -4784.0276      1128.209      -3.3405661e-06 -4.8705092e-06  5.018274       5.0189474      7.0016513      176.34676    
       132   0             -67.12077      -160.50921      2261.8201      2040.6798     -4784.0276      1128.209       8.3297458e-06 -1.8942749e-06  5.018274       5.0189474      7.0016513      176.34676    
       133   0             -67.12077      -160.50921      2261.8201      2040.6798     -4784.0276      1128.209       6.6231782e-06 -2.0414613e-06  5.018274       5.0189474      7.0016513      176.34676    
       134   0             -67.12077      -160.50921      2261.8201      2040.6798     -4784.0276      1128.209       2.4000519e-06  4.8596781e-08  5.018274       5.0189474      7.0016513      176.34676    
       135   0             -67.12077      -160.50921      2261.8201      2040.6798     -4784.0276      1128.209       5.0125523e-07  1.8886068e-06  5.018274       5.0189474      7.0016513      176.34676    
       136   0             -67.12077      -160.50921      2261.8201      2040.6798     -4784.0276      1128.209      -5.4242851e-07  8.5633367e-07  5.018274       5.0189474      7.0016513      176.34676    
       137   0             -67.12077      -160.50921      2261.8201      2040.6798     -4784.0276      1128.209      -1.7100178e-07  1.7612083e-07  5.018274       5.0189474      7.0016513      176.34676    
       138   0             -67.12077      -160.50921      2261.8201      2040.6798     -4784.0276      1128.209       8.5969484e-08 -2.6809592e-08  5.018274       5.0189474      7.0016513      176.34676    
       139   0             -67.12077      -160.50921      2261.8201      2040.6798     -4784.0276      1128.209       3.9558384e-08 -6.2398477e-08  5.018274       5.0189474      7.0016513      176.34676    
Loop time of 0.00136792 on 1 procs for 39 steps with 16 atoms

100.0% CPU use with 1 MPI tasks x 1 OpenMP threads

Minimization stats:
  Stopping criterion = force tolerance
  Energy initial, next-to-last, final = 
      -67.091741450671  -67.1207701477192  -67.1207701477192
  Force two-norm initial, final = 0.97309869 6.1913729e-11
  Force max component initial, final = 0.29835726 1.6578378e-11
  Final line search alpha, max atom move = 1 1.6578378e-11
  Iterations, force evaluations = 39 76

MPI task timing breakdown:
Section |  min time  |  avg time  |  max time  |%varavg| %total
---------------------------------------------------------------
Pair    | 0.0010575  | 0.0010575  | 0.0010575  |   0.0 | 77.31
Neigh   | 0          | 0          | 0          |   0.0 |  0.00
Comm    | 9.1739e-05 | 9.1739e-05 | 9.1739e-05 |   0.0 |  6.71
Output  | 0.00016986 | 0.00016986 | 0.00016986 |   0.0 | 12.42
Modify  | 0          | 0          | 0          |   0.0 |  0.00
Other   |            | 4.88e-05   |            |       |  3.57

Nlocal:             16 ave          16 max          16 min
Histogram: 1 0 0 0 0 0 0 0 0 0
Nghost:            572 ave         572 max         572 min
Histogram: 1 0 0 0 0 0 0 0 0 0
Neighs:            826 ave         826 max         826 min
Histogram: 1 0 0 0 0 0 0 0 0 0

Total # of neighbors = 826
Ave neighs/atom = 51.625
Neighbor list builds = 0
Dangerous builds = 0

# Obtain new stress tensor

variable tmp equal pxx
variable pxx1 equal ${tmp}
variable pxx1 equal 2261.82013346146
variable tmp equal pyy
variable pyy1 equal ${tmp}
variable pyy1 equal 2040.67981404034
variable tmp equal pzz
variable pzz1 equal ${tmp}
variable pzz1 equal -4784.02758208984
variable tmp equal pxy
variable pxy1 equal ${tmp}
variable pxy1 equal 1128.20897748868
variable tmp equal pxz
variable pxz1 equal ${tmp}
variable pxz1 equal 3.95583844478344e-08
variable tmp equal pyz
variable pyz1 equal ${tmp}
variable pyz1 equal -6.23984770237834e-08

# Compute elastic constant from pressure tensor

variable C1neg equal ${d1}
variable C1neg equal -11004.178980699
variable C2neg equal ${d2}
variable C2neg equal -34212.530890942
variable C3neg equal ${d3}
variable C3neg equal -38602.574044944
variable C4neg equal ${d4}
variable C4neg equal 15788.7572526567
variable C5neg equal ${d5}
variable C5neg equal -52203.2770001488
variable C6neg equal ${d6}
variable C6neg equal 34874.8649303769

# Reset box and simulation parameters

clear
OMP_NUM_THREADS environment is not set. Defaulting to 1 thread. (src/comm.cpp:98)
  using 1 OpenMP thread(s) per MPI task
box tilt large

The 'box' command has been removed and will be ignored

read_restart restart.equil
Reading restart file ...
  restart file = 28 Mar 2023, LAMMPS = 28 Mar 2023
  restoring atom style atomic from restart
  triclinic box = (-0.020121155 -0.020460367 0.019174345) to (4.9981528 4.998492 7.0208256) with tilt (0 0 0)
  1 by 1 by 1 MPI processor grid
  pair style eam/alloy stores no restart info
  16 atoms
  read_restart CPU = 0.000 seconds
include potential.mod
# Choose potential
pair_style  eam/alloy
pair_coeff  * * ../../../potentials/NiFeCr.eam.alloy Cr Ni

# Setup neighbor style
neighbor 1.0 nsq
neigh_modify once no every 1 delay 0 check yes

# Setup minimization style
min_style            cg
min_modify           dmax ${dmax} line quadratic
min_modify           dmax 0.01 line quadratic

# Setup output
thermo          1
thermo_style custom step temp pe press pxx pyy pzz pxy pxz pyz lx ly lz vol
thermo_modify norm no

# Positive deformation

variable delta equal ${up}*${len0}
variable delta equal 1e-06*${len0}
variable delta equal 1e-06*5.01895237474462
variable deltaxy equal ${up}*xy
variable deltaxy equal 1e-06*xy
variable deltaxz equal ${up}*xz
variable deltaxz equal 1e-06*xz
variable deltayz equal ${up}*yz
variable deltayz equal 1e-06*yz
if "${dir} == 1" then    "change_box all x delta 0 ${delta} xy delta ${deltaxy} xz delta ${deltaxz} remap units box"
if "${dir} == 2" then    "change_box all y delta 0 ${delta} yz delta ${deltayz} remap units box"
change_box all y delta 0 ${delta} yz delta ${deltayz} remap units box
change_box all y delta 0 5.01895237474462e-06 yz delta ${deltayz} remap units box
change_box all y delta 0 5.01895237474462e-06 yz delta 0 remap units box
Changing box ...
  triclinic box = (-0.020121155 -0.020460367 0.019174345) to (4.9981528 4.998497 7.0208256) with tilt (0 0 0)
  triclinic box = (-0.020121155 -0.020460367 0.019174345) to (4.9981528 4.998497 7.0208256) with tilt (0 0 0)
if "${dir} == 3" then    "change_box all z delta 0 ${delta} remap units box"
if "${dir} == 4" then    "change_box all yz delta ${delta} remap units box"
if "${dir} == 5" then    "change_box all xz delta ${delta} remap units box"
if "${dir} == 6" then    "change_box all xy delta ${delta} remap units box"

# Relax atoms positions

minimize ${etol} ${ftol} ${maxiter} ${maxeval}
minimize 0 ${ftol} ${maxiter} ${maxeval}
minimize 0 1e-10 ${maxiter} ${maxeval}
minimize 0 1e-10 100 ${maxeval}
minimize 0 1e-10 100 1000
Neighbor list info ...
  update: every = 1 steps, delay = 0 steps, check = yes
  max neighbors/atom: 2000, page size: 100000
  master list distance cutoff = 6.6
  ghost atom cutoff = 6.6
  1 neighbor lists, perpetual/occasional/extra = 1 0 0
  (1) pair eam/alloy, perpetual
      attributes: half, newton on
      pair build: half/nsq/newton
      stencil: none
      bin: none
Per MPI rank memory allocation (min/avg/max) = 4.455 | 4.455 | 4.455 Mbytes
   Step          Temp          PotEng         Press           Pxx            Pyy            Pzz            Pxy            Pxz            Pyz             Lx             Ly             Lz           Volume    
       100   0             -67.091742      117.46389      2371.3006      2380.5128     -4399.4217      779.58167      521.94592     -157.87834      5.018274       5.0189574      7.0016513      176.34711    
       101   0             -67.112657     -158.71384      2145.3947      2070.8467     -4692.383       883.44809      297.13363     -171.67534      5.018274       5.0189574      7.0016513      176.34711    
       102   0             -67.118216     -214.88891      2143.3774      1979.2465     -4767.2906      998.59277      48.275887     -208.77389      5.018274       5.0189574      7.0016513      176.34711    
       103   0             -67.119665     -226.45003      2127.8943      1994.5229     -4801.7672      1064.2516      5.3124469     -166.2988       5.018274       5.0189574      7.0016513      176.34711    
       104   0             -67.120439     -216.51821      2156.9133      1993.3476     -4799.8155      1112.8936     -39.180036     -57.497131      5.018274       5.0189574      7.0016513      176.34711    
       105   0             -67.120662     -197.94469      2175.6499      2023.0677     -4792.5516      1116.575      -64.577954     -36.900202      5.018274       5.0189574      7.0016513      176.34711    
       106   0             -67.120735     -177.60896      2211.3472      2044.2532     -4788.4273      1114.6226     -34.054166     -1.7285401      5.018274       5.0189574      7.0016513      176.34711    
       107   0             -67.120755     -170.49259      2231.0283      2044.7037     -4787.2098      1118.4796     -21.059446     -5.7080582      5.018274       5.0189574      7.0016513      176.34711    
       108   0             -67.120765     -166.42108      2242.3354      2044.4922     -4786.0908      1121.937      -17.268037     -13.86363       5.018274       5.0189574      7.0016513      176.34711    
       109   0             -67.120769     -164.02863      2251.3124      2042.1336     -4785.5319      1125.2852     -9.1750618     -12.673031      5.018274       5.0189574      7.0016513      176.34711    
       110   0             -67.12077      -161.89635      2259.3441      2040.9616     -4785.9948      1128.0541     -2.7134955     -5.7998076      5.018274       5.0189574      7.0016513      176.34711    
       111   0             -67.12077      -161.90181      2262.6963      2038.1705     -4786.5723      1129.1556     -0.7674699     -0.9062358      5.018274       5.0189574      7.0016513      176.34711    
       112   0             -67.120771     -162.34383      2262.2823      2037.179      -4786.4927      1129.0947     -0.37859042    -0.091896597    5.018274       5.0189574      7.0016513      176.34711    
       113   0             -67.120771     -162.64641      2261.7648      2036.6312     -4786.3352      1128.8839     -0.23018089     0.016984145    5.018274       5.0189574      7.0016513      176.34711    
       114   0             -67.120771     -162.77755      2261.4328      2036.561      -4786.3264      1128.7101     -0.4620505     -0.28401272     5.018274       5.0189574      7.0016513      176.34711    
       115   0             -67.120771     -162.91285      2261.1472      2036.5675     -4786.4532      1128.5321     -0.065127652   -0.11338202     5.018274       5.0189574      7.0016513      176.34711    
       116   0             -67.120771     -162.99835      2261.0154      2036.4892     -4786.4997      1128.4493     -0.035814159   -0.052392894    5.018274       5.0189574      7.0016513      176.34711    
       117   0             -67.120771     -163.07592      2260.8736      2036.4138     -4786.5151      1128.3798     -0.033630247   -0.040211691    5.018274       5.0189574      7.0016513      176.34711    
       118   0             -67.120771     -163.09861      2260.8275      2036.3848     -4786.5081      1128.3289     -0.0015459844  -0.016650424    5.018274       5.0189574      7.0016513      176.34711    
       119   0             -67.120771     -163.09502      2260.8364      2036.3898     -4786.5112      1128.3201     -0.013183003   -0.030237703    5.018274       5.0189574      7.0016513      176.34711    
       120   0             -67.120771     -163.09643      2260.8362      2036.3907     -4786.5162      1128.3176     -0.0058277436  -0.018187153    5.018274       5.0189574      7.0016513      176.34711    
[...]
       101   0             -67.112657     -157.36325      2145.9466      2073.0879     -4691.1242      883.15302      297.13151     -171.66863      5.018274       5.0189524      7.0016513      176.34694    
       102   0             -67.118216     -213.54565      2143.9223      1981.473      -4766.0323      998.2997       48.275888     -208.76823      5.018274       5.0189524      7.0016513      176.34694    
       103   0             -67.119664     -225.11097      2128.4385      1996.738      -4800.5094      1063.9596      5.3123984     -166.29477      5.018274       5.0189524      7.0016513      176.34694    
       104   0             -67.120439     -215.18023      2157.4615      1995.5543     -4798.5565      1112.6018     -39.179634     -57.496862      5.018274       5.0189524      7.0016513      176.34694    
       105   0             -67.120662     -196.6062       2176.2014      2025.2722     -4791.2923      1116.2832     -64.578099     -36.900426      5.018274       5.0189524      7.0016513      176.34694    
       106   0             -67.120735     -176.27014      2211.9013      2046.4563     -4787.168       1114.3309     -34.054179     -1.728587       5.018274       5.0189524      7.0016513      176.34694    
       107   0             -67.120755     -169.15356      2231.5839      2046.906      -4785.9506      1118.188      -21.059154     -5.7080958      5.018274       5.0189524      7.0016513      176.34694    
       108   0             -67.120765     -165.08214      2242.8916      2046.6937     -4784.8317      1121.6456     -17.267748     -13.863499      5.018274       5.0189524      7.0016513      176.34694    
       109   0             -67.120769     -162.6896       2251.8689      2044.335      -4784.2727      1124.9939     -9.1750905     -12.672781      5.018274       5.0189524      7.0016513      176.34694    
       110   0             -67.12077      -160.55718      2259.9009      2043.1631     -4784.7355      1127.7628     -2.7136744     -5.7998836      5.018274       5.0189524      7.0016513      176.34694    
       111   0             -67.12077      -160.56255      2263.2533      2040.372      -4785.3129      1128.8643     -0.76757696    -0.9062182      5.018274       5.0189524      7.0016513      176.34694    
       112   0             -67.12077      -161.00453      2262.8393      2039.3806     -4785.2334      1128.8034     -0.37867727    -0.091929688    5.018274       5.0189524      7.0016513      176.34694    
       113   0             -67.12077      -161.30714      2262.3218      2038.8327     -4785.0759      1128.5926     -0.23022329     0.01694836     5.018274       5.0189524      7.0016513      176.34694    
       114   0             -67.12077      -161.43827      2261.9897      2038.7626     -4785.0671      1128.4188     -0.46207633    -0.28403785     5.018274       5.0189524      7.0016513      176.34694    
       115   0             -67.12077      -161.57356      2261.7041      2038.7691     -4785.1939      1128.2408     -0.065139982   -0.11339647     5.018274       5.0189524      7.0016513      176.34694    
       116   0             -67.12077      -161.65906      2261.5724      2038.6908     -4785.2404      1128.158      -0.035822183   -0.052406447    5.018274       5.0189524      7.0016513      176.34694    
       117   0             -67.12077      -161.73663      2261.4305      2038.6154     -4785.2558      1128.0885     -0.03363447    -0.040217351    5.018274       5.0189524      7.0016513      176.34694    
       118   0             -67.12077      -161.75932      2261.3844      2038.5864     -4785.2488      1128.0376     -0.0015483807  -0.016650692    5.018274       5.0189524      7.0016513      176.34694    
       119   0             -67.12077      -161.75573      2261.3933      2038.5914     -4785.2519      1128.0288     -0.013186097   -0.030239498    5.018274       5.0189524      7.0016513      176.34694    
       120   0             -67.12077      -161.75715      2261.3931      2038.5923     -4785.2569      1128.0263     -0.0058299622  -0.01818787     5.018274       5.0189524      7.0016513      176.34694    
       121   0             -67.12077      -161.76175      2261.3876      2038.586      -4785.2588      1128.0256      0.0019276162  -0.0045544312   5.018274       5.0189524      7.0016513      176.34694    
       122   0             -67.12077      -161.76572      2261.3798      2038.5812     -4785.2582      1128.0258      3.2578834e-05 -5.6934265e-05  5.018274       5.0189524      7.0016513      176.34694    
       123   0             -67.12077      -161.76578      2261.3782      2038.5825     -4785.2581      1128.0261      1.7588947e-05  0.0010687816   5.018274       5.0189524      7.0016513      176.34694    
       124   0             -67.12077      -161.76526      2261.3778      2038.5846     -4785.2582      1128.0263     -0.00027527853  0.00048613005  5.018274       5.0189524      7.0016513      176.34694    
       125   0             -67.12077      -161.76498      2261.3775      2038.5858     -4785.2582      1128.0264     -5.5816733e-05  1.890878e-05   5.018274       5.0189524      7.0016513      176.34694    
       126   0             -67.12077      -161.76496      2261.377       2038.5863     -4785.2582      1128.0265      6.0558609e-05 -0.00027881494  5.018274       5.0189524      7.0016513      176.34694    
       127   0             -67.12077      -161.76495      2261.3765      2038.5868     -4785.2581      1128.0266      8.8926759e-05 -0.00012369663  5.018274       5.0189524      7.0016513      176.34694    
       128   0             -67.12077      -161.76488      2261.3765      2038.587      -4785.2581      1128.0266     -2.3934071e-05 -4.4148109e-05  5.018274       5.0189524      7.0016513      176.34694    
       129   0             -67.12077      -161.76483      2261.3765      2038.5871     -4785.2581      1128.0266     -4.8480837e-05 -1.8234689e-06  5.018274       5.0189524      7.0016513      176.34694    
       130   0             -67.12077      -161.76482      2261.3765      2038.5871     -4785.2581      1128.0266     -3.4185646e-05  1.9334329e-05  5.018274       5.0189524      7.0016513      176.34694    
       131   0             -67.12077      -161.76483      2261.3765      2038.5871     -4785.2581      1128.0266     -3.3359954e-06 -4.8698555e-06  5.018274       5.0189524      7.0016513      176.34694    
       132   0             -67.12077      -161.76483      2261.3765      2038.5871     -4785.2581      1128.0266      8.3372278e-06 -1.8925189e-06  5.018274       5.0189524      7.0016513      176.34694    
       133   0             -67.12077      -161.76483      2261.3765      2038.5871     -4785.2581      1128.0266      6.6269252e-06 -2.0405979e-06  5.018274       5.0189524      7.0016513      176.34694    
       134   0             -67.12077      -161.76483      2261.3765      2038.5871     -4785.2581      1128.0266      2.4007245e-06  5.0532355e-08  5.018274       5.0189524      7.0016513      176.34694    
       135   0             -67.12077      -161.76483      2261.3765      2038.5871     -4785.2581      1128.0266      5.0094355e-07  1.8905885e-06  5.018274       5.0189524      7.0016513      176.34694    
       136   0             -67.12077      -161.76483      2261.3765      2038.5871     -4785.2581      1128.0266     -5.4319166e-07  8.5691056e-07  5.018274       5.0189524      7.0016513      176.34694    
       137   0             -67.12077      -161.76483      2261.3765      2038.5871     -4785.2581      1128.0266     -1.7100627e-07  1.7587781e-07  5.018274       5.0189524      7.0016513      176.34694    
       138   0             -67.12077      -161.76483      2261.3765      2038.5871     -4785.2581      1128.0266      8.5912534e-08 -2.6874342e-08  5.018274       5.0189524      7.0016513      176.34694    
       139   0             -67.12077      -161.76483      2261.3765      2038.5871     -4785.2581      1128.0266      3.9728181e-08 -6.2403017e-08  5.018274       5.0189524      7.0016513      176.34694    
Loop time of 0.00136687 on 1 procs for 39 steps with 16 atoms

100.0% CPU use with 1 MPI tasks x 1 OpenMP threads

Minimization stats:
  Stopping criterion = force tolerance
  Energy initial, next-to-last, final = 
     -67.0917417988337  -67.1207704963846  -67.1207704963846
  Force two-norm initial, final = 0.97309721 6.191771e-11
  Force max component initial, final = 0.29835704 1.6578475e-11
  Final line search alpha, max atom move = 1 1.6578475e-11
  Iterations, force evaluations = 39 76

MPI task timing breakdown:
Section |  min time  |  avg time  |  max time  |%varavg| %total
---------------------------------------------------------------
Pair    | 0.0010759  | 0.0010759  | 0.0010759  |   0.0 | 78.71
Neigh   | 0          | 0          | 0          |   0.0 |  0.00
Comm    | 8.1833e-05 | 8.1833e-05 | 8.1833e-05 |   0.0 |  5.99
Output  | 0.00016629 | 0.00016629 | 0.00016629 |   0.0 | 12.17
Modify  | 0          | 0          | 0          |   0.0 |  0.00
Other   |            | 4.289e-05  |            |       |  3.14

Nlocal:             16 ave          16 max          16 min
Histogram: 1 0 0 0 0 0 0 0 0 0
Nghost:            572 ave         572 max         572 min
Histogram: 1 0 0 0 0 0 0 0 0 0
Neighs:            826 ave         826 max         826 min
Histogram: 1 0 0 0 0 0 0 0 0 0

Total # of neighbors = 826
Ave neighs/atom = 51.625
Neighbor list builds = 0
Dangerous builds = 0

# Obtain new stress tensor

variable tmp equal pe
variable e1 equal ${tmp}
variable e1 equal -67.1207704963846
variable tmp equal press
variable p1 equal ${tmp}
variable p1 equal -161.764829382199
variable tmp equal pxx
variable pxx1 equal ${tmp}
variable pxx1 equal 2261.37651145603
variable tmp equal pyy
variable pyy1 equal ${tmp}
variable pyy1 equal 2038.58710993312
variable tmp equal pzz
variable pzz1 equal ${tmp}
variable pzz1 equal -4785.25810953575
variable tmp equal pxy
variable pxy1 equal ${tmp}
variable pxy1 equal 1128.02662700604
variable tmp equal pxz
variable pxz1 equal ${tmp}
variable pxz1 equal 3.97281810952933e-08
variable tmp equal pyz
variable pyz1 equal ${tmp}
variable pyz1 equal -6.24030167199711e-08

# Compute elastic constant from pressure tensor

variable C1pos equal ${d1}
variable C1pos equal 11048.541181242
variable C2pos equal ${d2}
variable C2pos equal 34421.801301664
variable C3pos equal ${d3}
variable C3pos equal 38725.626789535
variable C4pos equal ${d4}
variable C4pos equal -15788.7572526562
variable C5pos equal ${d5}
variable C5pos equal 52203.2770001318
variable C6pos equal ${d6}
variable C6pos equal -34856.6298821129

# Combine positive and negative

variable C1${dir} equal 0.5*(${C1neg}+${C1pos})
variable C16 equal 0.5*(${C1neg}+${C1pos})
variable C16 equal 0.5*(-11059.871947951+${C1pos})
variable C16 equal 0.5*(-11059.871947951+11048.541181242)
variable C2${dir} equal 0.5*(${C2neg}+${C2pos})
variable C26 equal 0.5*(${C2neg}+${C2pos})
variable C26 equal 0.5*(-34432.694924367+${C2pos})
variable C26 equal 0.5*(-34432.694924367+34421.801301664)
variable C3${dir} equal 0.5*(${C3neg}+${C3pos})
variable C36 equal 0.5*(${C3neg}+${C3pos})
variable C36 equal 0.5*(-38728.506523405+${C3pos})
variable C36 equal 0.5*(-38728.506523405+38725.626789535)
variable C4${dir} equal 0.5*(${C4neg}+${C4pos})
variable C46 equal 0.5*(${C4neg}+${C4pos})
variable C46 equal 0.5*(15788.75725267+${C4pos})
variable C46 equal 0.5*(15788.75725267+-15788.7572526562)
variable C5${dir} equal 0.5*(${C5neg}+${C5pos})
variable C56 equal 0.5*(${C5neg}+${C5pos})
variable C56 equal 0.5*(-52203.2770001472+${C5pos})
variable C56 equal 0.5*(-52203.2770001472+52203.2770001318)
variable C6${dir} equal 0.5*(${C6neg}+${C6pos})
variable C66 equal 0.5*(${C6neg}+${C6pos})
variable C66 equal 0.5*(34903.9935705309+${C6pos})
variable C66 equal 0.5*(34903.9935705309+-34856.6298821129)

# Delete dir to make sure it is not reused

variable dir delete

# Output final values

variable C11all equal ${C11}
variable C11all equal 214.928256209
variable C22all equal ${C22}
variable C22all equal 214.716142211502
variable C33all equal ${C33}
variable C33all equal 166.660941394999

variable C12all equal 0.5*(${C12}+${C21})
variable C12all equal 0.5*(50.0274883385+${C21})
variable C12all equal 0.5*(50.0274883385+50.0052096094987)
variable C13all equal 0.5*(${C13}+${C31})
variable C13all equal 0.5*(125.210522735+${C31})
variable C13all equal 0.5*(125.210522735+124.505863493498)
variable C23all equal 0.5*(${C23}+${C32})
variable C23all equal 0.5*(125.174714153502+${C32})
variable C23all equal 0.5*(125.174714153502+124.492333637001)

variable C44all equal ${C44}
variable C44all equal 96.0068389726994
variable C55all equal ${C55}
variable C55all equal 96.0216462783501
variable C66all equal ${C66}
variable C66all equal 23.6818442090007

variable C14all equal 0.5*(${C14}+${C41})
variable C14all equal 0.5*(-3.99995769839734e-09+${C41})
variable C14all equal 0.5*(-3.99995769839734e-09+-2.1500454749912e-09)
variable C15all equal 0.5*(${C15}+${C51})
variable C15all equal 0.5*(5.99993654759601e-09+${C51})
variable C15all equal 0.5*(5.99993654759601e-09+-2.00088834390044e-10)
variable C16all equal 0.5*(${C16}+${C61})
variable C16all equal 0.5*(-5.66538335449968+${C61})
variable C16all equal 0.5*(-5.66538335449968+-5.43973066999752)

variable C24all equal 0.5*(${C24}+${C42})
variable C24all equal 0.5*(-7.99991539679468e-09+${C42})
variable C24all equal 0.5*(-7.99991539679468e-09+-1.6998455976136e-09)
variable C25all equal 0.5*(${C25}+${C52})
variable C25all equal 0.5*(-4.50017978437245e-09+${C52})
variable C25all equal 0.5*(-4.50017978437245e-09+4.00177668780088e-10)
variable C26all equal 0.5*(${C26}+${C62})
variable C26all equal 0.5*(-5.44681135149949+${C62})
variable C26all equal 0.5*(-5.44681135149949+-5.44681134050188)

variable C34all equal 0.5*(${C34}+${C43})
variable C34all equal 0.5*(-1.25000951811671e-08+${C43})
variable C34all equal 0.5*(-1.25000951811671e-08+-4.15002432418987e-09)
variable C35all equal 0.5*(${C35}+${C53})
variable C35all equal 0.5*(4.99858288094401e-09+${C53})
variable C35all equal 0.5*(4.99858288094401e-09+-3.89991328120232e-09)
variable C36all equal 0.5*(${C36}+${C63})
variable C36all equal 0.5*(-1.43986693499755+${C63})
variable C36all equal 0.5*(-1.43986693499755+-1.32704059550088)

variable C45all equal 0.5*(${C45}+${C54})
variable C45all equal 0.5*(-1.92683420835056+${C54})
variable C45all equal 0.5*(-1.92683420835056+-1.92683421685069)
variable C46all equal 0.5*(${C46}+${C64})
variable C46all equal 0.5*(6.90033630235121e-09+${C64})
variable C46all equal 0.5*(6.90033630235121e-09+-1.49884726852179e-09)
variable C56all equal 0.5*(${C56}+${C65})
variable C56all equal 0.5*(-7.70160113461316e-09+${C65})
variable C56all equal 0.5*(-7.70160113461316e-09+-1.00044417195022e-09)

# Average moduli for cubic crystals

variable C11cubic equal (${C11all}+${C22all}+${C33all})/3.0
variable C11cubic equal (214.928256209+${C22all}+${C33all})/3.0
variable C11cubic equal (214.928256209+214.716142211502+${C33all})/3.0
variable C11cubic equal (214.928256209+214.716142211502+166.660941394999)/3.0
variable C12cubic equal (${C12all}+${C13all}+${C23all})/3.0
variable C12cubic equal (50.0163489739993+${C13all}+${C23all})/3.0
variable C12cubic equal (50.0163489739993+124.858193114249+${C23all})/3.0
variable C12cubic equal (50.0163489739993+124.858193114249+124.833523895251)/3.0
variable C44cubic equal (${C44all}+${C55all}+${C66all})/3.0
variable C44cubic equal (96.0068389726994+${C55all}+${C66all})/3.0
variable C44cubic equal (96.0068389726994+96.0216462783501+${C66all})/3.0
variable C44cubic equal (96.0068389726994+96.0216462783501+23.6818442090007)/3.0

variable bulkmodulus equal (${C11cubic}+2*${C12cubic})/3.0
variable bulkmodulus equal (198.768446605167+2*${C12cubic})/3.0
variable bulkmodulus equal (198.768446605167+2*99.9026886611664)/3.0
variable shearmodulus1 equal ${C44cubic}
variable shearmodulus1 equal 71.9034431533501
variable shearmodulus2 equal (${C11cubic}-${C12cubic})/2.0
variable shearmodulus2 equal (198.768446605167-${C12cubic})/2.0
variable shearmodulus2 equal (198.768446605167-99.9026886611664)/2.0
variable poissonratio equal 1.0/(1.0+${C11cubic}/${C12cubic})
variable poissonratio equal 1.0/(1.0+198.768446605167/${C12cubic})
variable poissonratio equal 1.0/(1.0+198.768446605167/99.9026886611664)

# For Stillinger-Weber silicon, the analytical results
# are known to be (E. R. Cowley, 1988):
#               C11 = 151.4 GPa
#               C12 = 76.4 GPa
#               C44 = 56.4 GPa

print "========================================="
=========================================
print "Components of the Elastic Constant Tensor"
Components of the Elastic Constant Tensor
print "========================================="
=========================================

print "Elastic Constant C11all = ${C11all} ${cunits}"
Elastic Constant C11all = 214.928256209 GPa
print "Elastic Constant C22all = ${C22all} ${cunits}"
Elastic Constant C22all = 214.716142211502 GPa
print "Elastic Constant C33all = ${C33all} ${cunits}"
Elastic Constant C33all = 166.660941394999 GPa

print "Elastic Constant C12all = ${C12all} ${cunits}"
Elastic Constant C12all = 50.0163489739993 GPa
print "Elastic Constant C13all = ${C13all} ${cunits}"
Elastic Constant C13all = 124.858193114249 GPa
print "Elastic Constant C23all = ${C23all} ${cunits}"
Elastic Constant C23all = 124.833523895251 GPa

print "Elastic Constant C44all = ${C44all} ${cunits}"
Elastic Constant C44all = 96.0068389726994 GPa
print "Elastic Constant C55all = ${C55all} ${cunits}"
Elastic Constant C55all = 96.0216462783501 GPa
print "Elastic Constant C66all = ${C66all} ${cunits}"
Elastic Constant C66all = 23.6818442090007 GPa

print "Elastic Constant C14all = ${C14all} ${cunits}"
Elastic Constant C14all = -3.07500158669427e-09 GPa
print "Elastic Constant C15all = ${C15all} ${cunits}"
Elastic Constant C15all = 2.89992385660298e-09 GPa
print "Elastic Constant C16all = ${C16all} ${cunits}"
Elastic Constant C16all = -5.5525570122486 GPa

print "Elastic Constant C24all = ${C24all} ${cunits}"
Elastic Constant C24all = -4.84988049720414e-09 GPa
print "Elastic Constant C25all = ${C25all} ${cunits}"
Elastic Constant C25all = -2.05000105779618e-09 GPa
print "Elastic Constant C26all = ${C26all} ${cunits}"
Elastic Constant C26all = -5.44681134600069 GPa

print "Elastic Constant C34all = ${C34all} ${cunits}"
Elastic Constant C34all = -8.32505975267849e-09 GPa
print "Elastic Constant C35all = ${C35all} ${cunits}"
Elastic Constant C35all = 5.49334799870845e-10 GPa
print "Elastic Constant C36all = ${C36all} ${cunits}"
Elastic Constant C36all = -1.38345376524921 GPa

print "Elastic Constant C45all = ${C45all} ${cunits}"
Elastic Constant C45all = -1.92683421260063 GPa
print "Elastic Constant C46all = ${C46all} ${cunits}"
Elastic Constant C46all = 2.70074451691471e-09 GPa
print "Elastic Constant C56all = ${C56all} ${cunits}"
Elastic Constant C56all = -4.35102265328169e-09 GPa

print "========================================="
=========================================
print "Average properties for a cubic crystal"
Average properties for a cubic crystal
print "========================================="
=========================================

print "Bulk Modulus = ${bulkmodulus} ${cunits}"
Bulk Modulus = 132.857941309167 GPa
print "Shear Modulus 1 = ${shearmodulus1} ${cunits}"
Shear Modulus 1 = 71.9034431533501 GPa
print "Shear Modulus 2 = ${shearmodulus2} ${cunits}"
Shear Modulus 2 = 49.4328789720003 GPa
print "Poisson Ratio = ${poissonratio}"
Poisson Ratio = 0.334490604765273
print "cdvae [${C11all}, ${C12all}, ${C44all}, ${bulkmodulus}, ${shearmodulus1}]"
cdvae [214.928256209, 50.0163489739993, 96.0068389726994, 132.857941309167, 71.9034431533501]
Total wall time: 0:00:00
